s 1.106011134 _14_ AGT  --- 0 tcp 40 [0 0 0 0] ------- [14:3 29:0 32 0] [0 0] 0 0
r 1.106011134 _14_ RTR  --- 0 tcp 40 [0 0 0 0] ------- [14:3 29:0 32 0] [0 0] 0 0
s 1.106011134 _14_ RTR  --- 0 AODV 48 [0 0 0 0] ------- [14:255 -1:255 30 0] [0x2 1 1 [29 0] [14 4]] (REQUEST)
r 1.109933447 _9_ RTR  --- 0 AODV 48 [0 ffffffff e 800] ------- [14:255 -1:255 30 0] [0x2 1 1 [29 0] [14 4]] (REQUEST)
r 1.109933447 _19_ RTR  --- 0 AODV 48 [0 ffffffff e 800] ------- [14:255 -1:255 30 0] [0x2 1 1 [29 0] [14 4]] (REQUEST)
r 1.109933634 _13_ RTR  --- 0 AODV 48 [0 ffffffff e 800] ------- [14:255 -1:255 30 0] [0x2 1 1 [29 0] [14 4]] (REQUEST)
r 1.109933724 _8_ RTR  --- 0 AODV 48 [0 ffffffff e 800] ------- [14:255 -1:255 30 0] [0x2 1 1 [29 0] [14 4]] (REQUEST)
r 1.109933724 _18_ RTR  --- 0 AODV 48 [0 ffffffff e 800] ------- [14:255 -1:255 30 0] [0x2 1 1 [29 0] [14 4]] (REQUEST)
r 1.109933757 _4_ RTR  --- 0 AODV 48 [0 ffffffff e 800] ------- [14:255 -1:255 30 0] [0x2 1 1 [29 0] [14 4]] (REQUEST)
r 1.109933760 _24_ RTR  --- 0 AODV 48 [0 ffffffff e 800] ------- [14:255 -1:255 30 0] [0x2 1 1 [29 0] [14 4]] (REQUEST)
r 1.109933933 _3_ RTR  --- 0 AODV 48 [0 ffffffff e 800] ------- [14:255 -1:255 30 0] [0x2 1 1 [29 0] [14 4]] (REQUEST)
r 1.109933935 _23_ RTR  --- 0 AODV 48 [0 ffffffff e 800] ------- [14:255 -1:255 30 0] [0x2 1 1 [29 0] [14 4]] (REQUEST)
s 1.110578650 _24_ RTR  --- 0 AODV 48 [0 ffffffff e 800] ------- [24:255 -1:255 29 0] [0x2 2 1 [29 0] [14 4]] (REQUEST)
s 1.111518861 _18_ RTR  --- 0 AODV 48 [0 ffffffff e 800] ------- [18:255 -1:255 29 0] [0x2 2 1 [29 0] [14 4]] (REQUEST)
s 1.111700781 _3_ RTR  --- 0 AODV 48 [0 ffffffff e 800] ------- [3:255 -1:255 29 0] [0x2 2 1 [29 0] [14 4]] (REQUEST)
s 1.112289164 _4_ RTR  --- 0 AODV 48 [0 ffffffff e 800] ------- [4:255 -1:255 29 0] [0x2 2 1 [29 0] [14 4]] (REQUEST)
r 1.114481174 _13_ RTR  --- 0 AODV 48 [0 ffffffff 12 800] ------- [18:255 -1:255 29 0] [0x2 2 1 [29 0] [14 4]] (REQUEST)
r 1.114481174 _23_ RTR  --- 0 AODV 48 [0 ffffffff 12 800] ------- [18:255 -1:255 29 0] [0x2 2 1 [29 0] [14 4]] (REQUEST)
r 1.114481361 _17_ RTR  --- 0 AODV 48 [0 ffffffff 12 800] ------- [18:255 -1:255 29 0] [0x2 2 1 [29 0] [14 4]] (REQUEST)
r 1.114481361 _19_ RTR  --- 0 AODV 48 [0 ffffffff 12 800] ------- [18:255 -1:255 29 0] [0x2 2 1 [29 0] [14 4]] (REQUEST)
r 1.114481451 _14_ RTR  --- 0 AODV 48 [0 ffffffff 12 800] ------- [18:255 -1:255 29 0] [0x2 2 1 [29 0] [14 4]] (REQUEST)
r 1.114481451 _12_ RTR  --- 0 AODV 48 [0 ffffffff 12 800] ------- [18:255 -1:255 29 0] [0x2 2 1 [29 0] [14 4]] (REQUEST)
r 1.114481451 _22_ RTR  --- 0 AODV 48 [0 ffffffff 12 800] ------- [18:255 -1:255 29 0] [0x2 2 1 [29 0] [14 4]] (REQUEST)
r 1.114481451 _24_ RTR  --- 0 AODV 48 [0 ffffffff 12 800] ------- [18:255 -1:255 29 0] [0x2 2 1 [29 0] [14 4]] (REQUEST)
r 1.114481484 _28_ RTR  --- 0 AODV 48 [0 ffffffff 12 800] ------- [18:255 -1:255 29 0] [0x2 2 1 [29 0] [14 4]] (REQUEST)
r 1.114481487 _8_ RTR  --- 0 AODV 48 [0 ffffffff 12 800] ------- [18:255 -1:255 29 0] [0x2 2 1 [29 0] [14 4]] (REQUEST)
r 1.114481660 _27_ RTR  --- 0 AODV 48 [0 ffffffff 12 800] ------- [18:255 -1:255 29 0] [0x2 2 1 [29 0] [14 4]] (REQUEST)
r 1.114481660 _29_ RTR  --- 0 AODV 48 [0 ffffffff 12 800] ------- [18:255 -1:255 29 0] [0x2 2 1 [29 0] [14 4]] (REQUEST)
s 1.114481660 _29_ RTR  --- 0 AODV 44 [0 0 0 0] ------- [29:255 14:255 30 18] [0x4 1 [29 4] 10.000000] (REPLY)
r 1.114481662 _9_ RTR  --- 0 AODV 48 [0 ffffffff 12 800] ------- [18:255 -1:255 29 0] [0x2 2 1 [29 0] [14 4]] (REQUEST)
r 1.114481662 _7_ RTR  --- 0 AODV 48 [0 ffffffff 12 800] ------- [18:255 -1:255 29 0] [0x2 2 1 [29 0] [14 4]] (REQUEST)
s 1.114781188 _9_ RTR  --- 0 AODV 48 [0 ffffffff e 800] ------- [9:255 -1:255 29 0] [0x2 2 1 [29 0] [14 4]] (REQUEST)
s 1.116162532 _13_ RTR  --- 0 AODV 48 [0 ffffffff e 800] ------- [13:255 -1:255 29 0] [0x2 2 1 [29 0] [14 4]] (REQUEST)
s 1.116771220 _22_ RTR  --- 0 AODV 48 [0 ffffffff 12 800] ------- [22:255 -1:255 28 0] [0x2 3 1 [29 0] [14 4]] (REQUEST)
s 1.118441552 _8_ RTR  --- 0 AODV 48 [0 ffffffff e 800] ------- [8:255 -1:255 29 0] [0x2 2 1 [29 0] [14 4]] (REQUEST)
r 1.118468964 _19_ RTR  --- 0 AODV 48 [0 ffffffff 18 800] ------- [24:255 -1:255 29 0] [0x2 2 1 [29 0] [14 4]] (REQUEST)
s 1.118647383 _23_ RTR  --- 0 AODV 48 [0 ffffffff e 800] ------- [23:255 -1:255 29 0] [0x2 2 1 [29 0] [14 4]] (REQUEST)
s 1.118815554 _12_ RTR  --- 0 AODV 48 [0 ffffffff 12 800] ------- [12:255 -1:255 28 0] [0x2 3 1 [29 0] [14 4]] (REQUEST)
s 1.118899915 _28_ RTR  --- 0 AODV 48 [0 ffffffff 12 800] ------- [28:255 -1:255 28 0] [0x2 3 1 [29 0] [14 4]] (REQUEST)
s 1.118901456 _19_ RTR  --- 0 AODV 48 [0 ffffffff e 800] ------- [19:255 -1:255 29 0] [0x2 2 1 [29 0] [14 4]] (REQUEST)
s 1.119081400 _7_ RTR  --- 0 AODV 48 [0 ffffffff 12 800] ------- [7:255 -1:255 28 0] [0x2 3 1 [29 0] [14 4]] (REQUEST)
r 1.120724846 _8_ RTR  --- 0 AODV 48 [0 ffffffff d 800] ------- [13:255 -1:255 29 0] [0x2 2 1 [29 0] [14 4]] (REQUEST)
r 1.120724846 _18_ RTR  --- 0 AODV 48 [0 ffffffff d 800] ------- [13:255 -1:255 29 0] [0x2 2 1 [29 0] [14 4]] (REQUEST)
r 1.120725032 _12_ RTR  --- 0 AODV 48 [0 ffffffff d 800] ------- [13:255 -1:255 29 0] [0x2 2 1 [29 0] [14 4]] (REQUEST)
r 1.120725032 _14_ RTR  --- 0 AODV 48 [0 ffffffff d 800] ------- [13:255 -1:255 29 0] [0x2 2 1 [29 0] [14 4]] (REQUEST)
r 1.120725122 _9_ RTR  --- 0 AODV 48 [0 ffffffff d 800] ------- [13:255 -1:255 29 0] [0x2 2 1 [29 0] [14 4]] (REQUEST)
r 1.120725122 _7_ RTR  --- 0 AODV 48 [0 ffffffff d 800] ------- [13:255 -1:255 29 0] [0x2 2 1 [29 0] [14 4]] (REQUEST)
r 1.120725122 _17_ RTR  --- 0 AODV 48 [0 ffffffff d 800] ------- [13:255 -1:255 29 0] [0x2 2 1 [29 0] [14 4]] (REQUEST)
r 1.120725122 _19_ RTR  --- 0 AODV 48 [0 ffffffff d 800] ------- [13:255 -1:255 29 0] [0x2 2 1 [29 0] [14 4]] (REQUEST)
r 1.120725156 _3_ RTR  --- 0 AODV 48 [0 ffffffff d 800] ------- [13:255 -1:255 29 0] [0x2 2 1 [29 0] [14 4]] (REQUEST)
r 1.120725159 _23_ RTR  --- 0 AODV 48 [0 ffffffff d 800] ------- [13:255 -1:255 29 0] [0x2 2 1 [29 0] [14 4]] (REQUEST)
r 1.120725331 _4_ RTR  --- 0 AODV 48 [0 ffffffff d 800] ------- [13:255 -1:255 29 0] [0x2 2 1 [29 0] [14 4]] (REQUEST)
r 1.120725331 _2_ RTR  --- 0 AODV 48 [0 ffffffff d 800] ------- [13:255 -1:255 29 0] [0x2 2 1 [29 0] [14 4]] (REQUEST)
r 1.120725334 _22_ RTR  --- 0 AODV 48 [0 ffffffff d 800] ------- [13:255 -1:255 29 0] [0x2 2 1 [29 0] [14 4]] (REQUEST)
r 1.120725334 _24_ RTR  --- 0 AODV 48 [0 ffffffff d 800] ------- [13:255 -1:255 29 0] [0x2 2 1 [29 0] [14 4]] (REQUEST)
s 1.120852155 _17_ RTR  --- 0 AODV 48 [0 ffffffff 12 800] ------- [17:255 -1:255 28 0] [0x2 3 1 [29 0] [14 4]] (REQUEST)
s 1.123880848 _27_ RTR  --- 0 AODV 48 [0 ffffffff 12 800] ------- [27:255 -1:255 28 0] [0x2 3 1 [29 0] [14 4]] (REQUEST)
r 1.123977693 _28_ RTR  --- 0 AODV 48 [0 ffffffff 17 800] ------- [23:255 -1:255 29 0] [0x2 2 1 [29 0] [14 4]] (REQUEST)
r 1.123977883 _22_ RTR  --- 0 AODV 48 [0 ffffffff 17 800] ------- [23:255 -1:255 29 0] [0x2 2 1 [29 0] [14 4]] (REQUEST)
r 1.123977972 _27_ RTR  --- 0 AODV 48 [0 ffffffff 17 800] ------- [23:255 -1:255 29 0] [0x2 2 1 [29 0] [14 4]] (REQUEST)
r 1.124079498 _4_ RTR  --- 0 AODV 48 [0 ffffffff 9 800] ------- [9:255 -1:255 29 0] [0x2 2 1 [29 0] [14 4]] (REQUEST)
r 1.126385867 _7_ RTR  --- 0 AODV 48 [0 ffffffff c 800] ------- [12:255 -1:255 28 0] [0x2 3 1 [29 0] [14 4]] (REQUEST)
r 1.126385867 _17_ RTR  --- 0 AODV 48 [0 ffffffff c 800] ------- [12:255 -1:255 28 0] [0x2 3 1 [29 0] [14 4]] (REQUEST)
r 1.126386054 _11_ RTR  --- 0 AODV 48 [0 ffffffff c 800] ------- [12:255 -1:255 28 0] [0x2 3 1 [29 0] [14 4]] (REQUEST)
r 1.126386054 _13_ RTR  --- 0 AODV 48 [0 ffffffff c 800] ------- [12:255 -1:255 28 0] [0x2 3 1 [29 0] [14 4]] (REQUEST)
r 1.126386144 _8_ RTR  --- 0 AODV 48 [0 ffffffff c 800] ------- [12:255 -1:255 28 0] [0x2 3 1 [29 0] [14 4]] (REQUEST)
r 1.126386144 _6_ RTR  --- 0 AODV 48 [0 ffffffff c 800] ------- [12:255 -1:255 28 0] [0x2 3 1 [29 0] [14 4]] (REQUEST)
r 1.126386144 _16_ RTR  --- 0 AODV 48 [0 ffffffff c 800] ------- [12:255 -1:255 28 0] [0x2 3 1 [29 0] [14 4]] (REQUEST)
r 1.126386144 _18_ RTR  --- 0 AODV 48 [0 ffffffff c 800] ------- [12:255 -1:255 28 0] [0x2 3 1 [29 0] [14 4]] (REQUEST)
r 1.126386177 _2_ RTR  --- 0 AODV 48 [0 ffffffff c 800] ------- [12:255 -1:255 28 0] [0x2 3 1 [29 0] [14 4]] (REQUEST)
r 1.126386180 _22_ RTR  --- 0 AODV 48 [0 ffffffff c 800] ------- [12:255 -1:255 28 0] [0x2 3 1 [29 0] [14 4]] (REQUEST)
r 1.126386353 _3_ RTR  --- 0 AODV 48 [0 ffffffff c 800] ------- [12:255 -1:255 28 0] [0x2 3 1 [29 0] [14 4]] (REQUEST)
r 1.126386353 _1_ RTR  --- 0 AODV 48 [0 ffffffff c 800] ------- [12:255 -1:255 28 0] [0x2 3 1 [29 0] [14 4]] (REQUEST)
r 1.126386356 _21_ RTR  --- 0 AODV 48 [0 ffffffff c 800] ------- [12:255 -1:255 28 0] [0x2 3 1 [29 0] [14 4]] (REQUEST)
r 1.126386356 _23_ RTR  --- 0 AODV 48 [0 ffffffff c 800] ------- [12:255 -1:255 28 0] [0x2 3 1 [29 0] [14 4]] (REQUEST)
s 1.126405439 _33_ AGT  --- 1 tcp 40 [0 0 0 0] ------- [33:0 21:0 32 0] [0 0] 0 0
r 1.126405439 _33_ RTR  --- 1 tcp 40 [0 0 0 0] ------- [33:0 21:0 32 0] [0 0] 0 0
s 1.126405439 _33_ RTR  --- 0 AODV 48 [0 0 0 0] ------- [33:255 -1:255 30 0] [0x2 1 1 [21 0] [33 4]] (REQUEST)
s 1.126939520 _11_ RTR  --- 0 AODV 48 [0 ffffffff c 800] ------- [11:255 -1:255 27 0] [0x2 4 1 [29 0] [14 4]] (REQUEST)
s 1.127279748 _2_ RTR  --- 0 AODV 48 [0 ffffffff d 800] ------- [2:255 -1:255 28 0] [0x2 3 1 [29 0] [14 4]] (REQUEST)
s 1.127838335 _30_ AGT  --- 2 tcp 40 [0 0 0 0] ------- [30:0 31:0 32 0] [0 0] 0 0
r 1.127838335 _30_ RTR  --- 2 tcp 40 [0 0 0 0] ------- [30:0 31:0 32 0] [0 0] 0 0
s 1.127838335 _30_ RTR  --- 0 AODV 48 [0 0 0 0] ------- [30:255 -1:255 30 0] [0x2 1 1 [31 0] [30 4]] (REQUEST)
r 1.129211162 _32_ RTR  --- 0 AODV 48 [0 ffffffff 1b 800] ------- [27:255 -1:255 28 0] [0x2 3 1 [29 0] [14 4]] (REQUEST)
r 1.129269533 _17_ RTR  --- 0 AODV 48 [0 ffffffff 16 800] ------- [22:255 -1:255 28 0] [0x2 3 1 [29 0] [14 4]] (REQUEST)
s 1.129971884 _32_ RTR  --- 0 AODV 48 [0 ffffffff 1b 800] ------- [32:255 -1:255 27 0] [0x2 4 1 [29 0] [14 4]] (REQUEST)
s 1.130689969 _21_ RTR  --- 0 AODV 48 [0 ffffffff c 800] ------- [21:255 -1:255 27 0] [0x2 4 1 [29 0] [14 4]] (REQUEST)
r 1.131899710 _2_ RTR  --- 0 AODV 48 [0 ffffffff 7 800] ------- [7:255 -1:255 28 0] [0x2 3 1 [29 0] [14 4]] (REQUEST)
r 1.131899900 _8_ RTR  --- 0 AODV 48 [0 ffffffff 7 800] ------- [7:255 -1:255 28 0] [0x2 3 1 [29 0] [14 4]] (REQUEST)
r 1.131899988 _3_ RTR  --- 0 AODV 48 [0 ffffffff 7 800] ------- [7:255 -1:255 28 0] [0x2 3 1 [29 0] [14 4]] (REQUEST)
r 1.131949833 _16_ RTR  --- 0 AODV 48 [0 ffffffff b 800] ------- [11:255 -1:255 27 0] [0x2 4 1 [29 0] [14 4]] (REQUEST)
r 1.131950020 _10_ RTR  --- 0 AODV 48 [0 ffffffff b 800] ------- [11:255 -1:255 27 0] [0x2 4 1 [29 0] [14 4]] (REQUEST)
r 1.132038225 _23_ RTR  --- 0 AODV 48 [0 ffffffff 1c 800] ------- [28:255 -1:255 28 0] [0x2 3 1 [29 0] [14 4]] (REQUEST)
r 1.132038228 _33_ RTR  --- 0 AODV 48 [0 ffffffff 1c 800] ------- [28:255 -1:255 28 0] [0x2 3 1 [29 0] [14 4]] (REQUEST)
r 1.132038415 _29_ RTR  --- 0 AODV 48 [0 ffffffff 1c 800] ------- [28:255 -1:255 28 0] [0x2 3 1 [29 0] [14 4]] (REQUEST)
r 1.132038503 _24_ RTR  --- 0 AODV 48 [0 ffffffff 1c 800] ------- [28:255 -1:255 28 0] [0x2 3 1 [29 0] [14 4]] (REQUEST)
r 1.132038505 _34_ RTR  --- 0 AODV 48 [0 ffffffff 1c 800] ------- [28:255 -1:255 28 0] [0x2 3 1 [29 0] [14 4]] (REQUEST)
r 1.132038542 _38_ RTR  --- 0 AODV 48 [0 ffffffff 1c 800] ------- [28:255 -1:255 28 0] [0x2 3 1 [29 0] [14 4]] (REQUEST)
r 1.132038717 _39_ RTR  --- 0 AODV 48 [0 ffffffff 1c 800] ------- [28:255 -1:255 28 0] [0x2 3 1 [29 0] [14 4]] (REQUEST)
r 1.132080648 _25_ RTR  --- 0 AODV 48 [0 ffffffff 1e 800] ------- [30:255 -1:255 30 0] [0x2 1 1 [31 0] [30 4]] (REQUEST)
r 1.132080648 _35_ RTR  --- 0 AODV 48 [0 ffffffff 1e 800] ------- [30:255 -1:255 30 0] [0x2 1 1 [31 0] [30 4]] (REQUEST)
r 1.132080835 _31_ RTR  --- 0 AODV 48 [0 ffffffff 1e 800] ------- [30:255 -1:255 30 0] [0x2 1 1 [31 0] [30 4]] (REQUEST)
s 1.132080835 _31_ RTR  --- 0 AODV 44 [0 0 0 0] ------- [31:255 30:255 30 30] [0x4 1 [31 4] 10.000000] (REPLY)
r 1.132080925 _36_ RTR  --- 0 AODV 48 [0 ffffffff 1e 800] ------- [30:255 -1:255 30 0] [0x2 1 1 [31 0] [30 4]] (REQUEST)
s 1.132159995 _35_ RTR  --- 0 AODV 48 [0 ffffffff 1e 800] ------- [35:255 -1:255 29 0] [0x2 2 1 [31 0] [30 4]] (REQUEST)
s 1.132237572 _33_ RTR  --- 0 AODV 48 [0 ffffffff 1c 800] ------- [33:255 -1:255 27 0] [0x2 4 1 [29 0] [14 4]] (REQUEST)
s 1.133469874 _1_ RTR  --- 0 AODV 48 [0 ffffffff c 800] ------- [1:255 -1:255 27 0] [0x2 4 1 [29 0] [14 4]] (REQUEST)
s 1.134608253 _16_ RTR  --- 0 AODV 48 [0 ffffffff c 800] ------- [16:255 -1:255 27 0] [0x2 4 1 [29 0] [14 4]] (REQUEST)
s 1.134647575 _10_ RTR  --- 0 AODV 48 [0 ffffffff b 800] ------- [10:255 -1:255 26 0] [0x2 5 1 [29 0] [14 4]] (REQUEST)
r 1.134662197 _27_ RTR  --- 0 AODV 48 [0 ffffffff 20 800] ------- [32:255 -1:255 27 0] [0x2 4 1 [29 0] [14 4]] (REQUEST)
r 1.134662197 _37_ RTR  --- 0 AODV 48 [0 ffffffff 20 800] ------- [32:255 -1:255 27 0] [0x2 4 1 [29 0] [14 4]] (REQUEST)
r 1.134662384 _31_ RTR  --- 0 AODV 48 [0 ffffffff 20 800] ------- [32:255 -1:255 27 0] [0x2 4 1 [29 0] [14 4]] (REQUEST)
r 1.134662384 _33_ RTR  --- 0 AODV 48 [0 ffffffff 20 800] ------- [32:255 -1:255 27 0] [0x2 4 1 [29 0] [14 4]] (REQUEST)
r 1.134662474 _28_ RTR  --- 0 AODV 48 [0 ffffffff 20 800] ------- [32:255 -1:255 27 0] [0x2 4 1 [29 0] [14 4]] (REQUEST)
r 1.134662474 _26_ RTR  --- 0 AODV 48 [0 ffffffff 20 800] ------- [32:255 -1:255 27 0] [0x2 4 1 [29 0] [14 4]] (REQUEST)
r 1.134662474 _36_ RTR  --- 0 AODV 48 [0 ffffffff 20 800] ------- [32:255 -1:255 27 0] [0x2 4 1 [29 0] [14 4]] (REQUEST)
r 1.134662474 _38_ RTR  --- 0 AODV 48 [0 ffffffff 20 800] ------- [32:255 -1:255 27 0] [0x2 4 1 [29 0] [14 4]] (REQUEST)
r 1.134662507 _22_ RTR  --- 0 AODV 48 [0 ffffffff 20 800] ------- [32:255 -1:255 27 0] [0x2 4 1 [29 0] [14 4]] (REQUEST)
r 1.134662683 _23_ RTR  --- 0 AODV 48 [0 ffffffff 20 800] ------- [32:255 -1:255 27 0] [0x2 4 1 [29 0] [14 4]] (REQUEST)
s 1.135160134 _25_ RTR  --- 0 AODV 48 [0 ffffffff 1e 800] ------- [25:255 -1:255 29 0] [0x2 2 1 [31 0] [30 4]] (REQUEST)
s 1.135924628 _6_ RTR  --- 0 AODV 48 [0 ffffffff c 800] ------- [6:255 -1:255 27 0] [0x2 4 1 [29 0] [14 4]] (REQUEST)
s 1.136357352 _38_ RTR  --- 0 AODV 48 [0 ffffffff 1c 800] ------- [38:255 -1:255 27 0] [0x2 4 1 [29 0] [14 4]] (REQUEST)
r 1.136432184 _6_ RTR  --- 0 AODV 48 [0 ffffffff 1 800] ------- [1:255 -1:255 27 0] [0x2 4 1 [29 0] [14 4]] (REQUEST)
r 1.136432374 _0_ RTR  --- 0 AODV 48 [0 ffffffff 1 800] ------- [1:255 -1:255 27 0] [0x2 4 1 [29 0] [14 4]] (REQUEST)
r 1.136432374 _2_ RTR  --- 0 AODV 48 [0 ffffffff 1 800] ------- [1:255 -1:255 27 0] [0x2 4 1 [29 0] [14 4]] (REQUEST)
r 1.136432462 _5_ RTR  --- 0 AODV 48 [0 ffffffff 1 800] ------- [1:255 -1:255 27 0] [0x2 4 1 [29 0] [14 4]] (REQUEST)
r 1.136432462 _7_ RTR  --- 0 AODV 48 [0 ffffffff 1 800] ------- [1:255 -1:255 27 0] [0x2 4 1 [29 0] [14 4]] (REQUEST)
r 1.136432497 _11_ RTR  --- 0 AODV 48 [0 ffffffff 1 800] ------- [1:255 -1:255 27 0] [0x2 4 1 [29 0] [14 4]] (REQUEST)
s 1.136913146 _39_ RTR  --- 0 AODV 48 [0 ffffffff 1c 800] ------- [39:255 -1:255 27 0] [0x2 4 1 [29 0] [14 4]] (REQUEST)
s 1.137426482 _31_ RTR  --- 0 AODV 48 [0 ffffffff 20 800] ------- [31:255 -1:255 26 0] [0x2 5 1 [29 0] [14 4]] (REQUEST)
s 1.138215208 _26_ RTR  --- 0 AODV 48 [0 ffffffff 20 800] ------- [26:255 -1:255 26 0] [0x2 5 1 [29 0] [14 4]] (REQUEST)
s 1.138575502 _37_ RTR  --- 0 AODV 48 [0 ffffffff 20 800] ------- [37:255 -1:255 26 0] [0x2 5 1 [29 0] [14 4]] (REQUEST)
s 1.138979997 _36_ RTR  --- 0 AODV 48 [0 ffffffff 1e 800] ------- [36:255 -1:255 29 0] [0x2 2 1 [31 0] [30 4]] (REQUEST)
s 1.139080147 _34_ RTR  --- 0 AODV 48 [0 ffffffff 1c 800] ------- [34:255 -1:255 27 0] [0x2 4 1 [29 0] [14 4]] (REQUEST)
r 1.139458248 _3_ RTR  --- 0 AODV 48 [0 ffffffff 2 800] ------- [2:255 -1:255 28 0] [0x2 3 1 [29 0] [14 4]] (REQUEST)
s 1.139486264 _0_ RTR  --- 0 AODV 48 [0 ffffffff 1 800] ------- [0:255 -1:255 26 0] [0x2 5 1 [29 0] [14 4]] (REQUEST)
r 1.139490566 _21_ RTR  --- 0 AODV 48 [0 ffffffff 10 800] ------- [16:255 -1:255 27 0] [0x2 4 1 [29 0] [14 4]] (REQUEST)
s 1.139739016 _5_ RTR  --- 0 AODV 48 [0 ffffffff 1 800] ------- [5:255 -1:255 26 0] [0x2 5 1 [29 0] [14 4]] (REQUEST)
r 1.141155459 _34_ RTR  --- 0 AODV 48 [0 ffffffff 27 800] ------- [39:255 -1:255 27 0] [0x2 4 1 [29 0] [14 4]] (REQUEST)
r 1.141155646 _38_ RTR  --- 0 AODV 48 [0 ffffffff 27 800] ------- [39:255 -1:255 27 0] [0x2 4 1 [29 0] [14 4]] (REQUEST)
r 1.141155736 _33_ RTR  --- 0 AODV 48 [0 ffffffff 27 800] ------- [39:255 -1:255 27 0] [0x2 4 1 [29 0] [14 4]] (REQUEST)
r 1.141155773 _29_ RTR  --- 0 AODV 48 [0 ffffffff 27 800] ------- [39:255 -1:255 27 0] [0x2 4 1 [29 0] [14 4]] (REQUEST)
r 1.141635362 _20_ RTR  --- 0 AODV 48 [0 ffffffff 19 800] ------- [25:255 -1:255 29 0] [0x2 2 1 [31 0] [30 4]] (REQUEST)
r 1.141635366 _30_ RTR  --- 0 AODV 48 [0 ffffffff 19 800] ------- [25:255 -1:255 29 0] [0x2 2 1 [31 0] [30 4]] (REQUEST)
r 1.141635552 _26_ RTR  --- 0 AODV 48 [0 ffffffff 19 800] ------- [25:255 -1:255 29 0] [0x2 2 1 [31 0] [30 4]] (REQUEST)
r 1.141635641 _21_ RTR  --- 0 AODV 48 [0 ffffffff 19 800] ------- [25:255 -1:255 29 0] [0x2 2 1 [31 0] [30 4]] (REQUEST)
r 1.141635642 _31_ RTR  --- 0 AODV 48 [0 ffffffff 19 800] ------- [25:255 -1:255 29 0] [0x2 2 1 [31 0] [30 4]] (REQUEST)
r 1.141635676 _15_ RTR  --- 0 AODV 48 [0 ffffffff 19 800] ------- [25:255 -1:255 29 0] [0x2 2 1 [31 0] [30 4]] (REQUEST)
r 1.141635679 _35_ RTR  --- 0 AODV 48 [0 ffffffff 19 800] ------- [25:255 -1:255 29 0] [0x2 2 1 [31 0] [30 4]] (REQUEST)
r 1.141635854 _36_ RTR  --- 0 AODV 48 [0 ffffffff 19 800] ------- [25:255 -1:255 29 0] [0x2 2 1 [31 0] [30 4]] (REQUEST)
r 1.143035862 _3_ RTR  --- 0 AODV 48 [0 ffffffff 8 800] ------- [8:255 -1:255 29 0] [0x2 2 1 [29 0] [14 4]] (REQUEST)
r 1.143035865 _13_ RTR  --- 0 AODV 48 [0 ffffffff 8 800] ------- [8:255 -1:255 29 0] [0x2 2 1 [29 0] [14 4]] (REQUEST)
r 1.143036052 _7_ RTR  --- 0 AODV 48 [0 ffffffff 8 800] ------- [8:255 -1:255 29 0] [0x2 2 1 [29 0] [14 4]] (REQUEST)
r 1.143036052 _9_ RTR  --- 0 AODV 48 [0 ffffffff 8 800] ------- [8:255 -1:255 29 0] [0x2 2 1 [29 0] [14 4]] (REQUEST)
r 1.143036140 _4_ RTR  --- 0 AODV 48 [0 ffffffff 8 800] ------- [8:255 -1:255 29 0] [0x2 2 1 [29 0] [14 4]] (REQUEST)
r 1.143036140 _2_ RTR  --- 0 AODV 48 [0 ffffffff 8 800] ------- [8:255 -1:255 29 0] [0x2 2 1 [29 0] [14 4]] (REQUEST)
r 1.143036142 _12_ RTR  --- 0 AODV 48 [0 ffffffff 8 800] ------- [8:255 -1:255 29 0] [0x2 2 1 [29 0] [14 4]] (REQUEST)
r 1.143036142 _14_ RTR  --- 0 AODV 48 [0 ffffffff 8 800] ------- [8:255 -1:255 29 0] [0x2 2 1 [29 0] [14 4]] (REQUEST)
r 1.143036178 _18_ RTR  --- 0 AODV 48 [0 ffffffff 8 800] ------- [8:255 -1:255 29 0] [0x2 2 1 [29 0] [14 4]] (REQUEST)
r 1.143862311 _31_ RTR  --- 0 AODV 48 [0 ffffffff 24 800] ------- [36:255 -1:255 29 0] [0x2 2 1 [31 0] [30 4]] (REQUEST)
r 1.143862497 _37_ RTR  --- 0 AODV 48 [0 ffffffff 24 800] ------- [36:255 -1:255 29 0] [0x2 2 1 [31 0] [30 4]] (REQUEST)
r 1.144018308 _30_ RTR  --- 0 AODV 48 [0 ffffffff 23 800] ------- [35:255 -1:255 29 0] [0x2 2 1 [31 0] [30 4]] (REQUEST)
s 1.144145482 _36_ RTR  --- 0 AODV 48 [0 ffffffff 20 800] ------- [36:255 -1:255 26 0] [0x2 5 1 [29 0] [14 4]] (REQUEST)
s 1.146115230 _21_ RTR  --- 0 AODV 48 [0 ffffffff 19 800] ------- [21:255 -1:255 28 0] [0x2 3 1 [31 0] [30 4]] (REQUEST)
r 1.146324282 _16_ RTR  --- 0 AODV 48 [0 ffffffff 15 800] ------- [21:255 -1:255 27 0] [0x2 4 1 [29 0] [14 4]] (REQUEST)
r 1.146425521 _31_ RTR  --- 0 AODV 48 [0 ffffffff 1a 800] ------- [26:255 -1:255 26 0] [0x2 5 1 [29 0] [14 4]] (REQUEST)
r 1.146519753 _28_ RTR  --- 0 AODV 48 [0 ffffffff 21 800] ------- [33:255 -1:255 30 0] [0x2 1 1 [21 0] [33 4]] (REQUEST)
r 1.146519753 _38_ RTR  --- 0 AODV 48 [0 ffffffff 21 800] ------- [33:255 -1:255 30 0] [0x2 1 1 [21 0] [33 4]] (REQUEST)
r 1.146519939 _34_ RTR  --- 0 AODV 48 [0 ffffffff 21 800] ------- [33:255 -1:255 30 0] [0x2 1 1 [21 0] [33 4]] (REQUEST)
r 1.146520029 _29_ RTR  --- 0 AODV 48 [0 ffffffff 21 800] ------- [33:255 -1:255 30 0] [0x2 1 1 [21 0] [33 4]] (REQUEST)
r 1.146520029 _39_ RTR  --- 0 AODV 48 [0 ffffffff 21 800] ------- [33:255 -1:255 30 0] [0x2 1 1 [21 0] [33 4]] (REQUEST)
s 1.146744973 _20_ RTR  --- 0 AODV 48 [0 ffffffff 19 800] ------- [20:255 -1:255 28 0] [0x2 3 1 [31 0] [30 4]] (REQUEST)
s 1.147335611 _28_ RTR  --- 0 AODV 48 [0 ffffffff 21 800] ------- [28:255 -1:255 29 0] [0x2 2 1 [21 0] [33 4]] (REQUEST)
r 1.148717326 _0_ RTR  --- 0 AODV 48 [0 ffffffff 5 800] ------- [5:255 -1:255 26 0] [0x2 5 1 [29 0] [14 4]] (REQUEST)
r 1.148717330 _10_ RTR  --- 0 AODV 48 [0 ffffffff 5 800] ------- [5:255 -1:255 26 0] [0x2 5 1 [29 0] [14 4]] (REQUEST)
r 1.148717516 _6_ RTR  --- 0 AODV 48 [0 ffffffff 5 800] ------- [5:255 -1:255 26 0] [0x2 5 1 [29 0] [14 4]] (REQUEST)
r 1.148717605 _1_ RTR  --- 0 AODV 48 [0 ffffffff 5 800] ------- [5:255 -1:255 26 0] [0x2 5 1 [29 0] [14 4]] (REQUEST)
r 1.148717607 _11_ RTR  --- 0 AODV 48 [0 ffffffff 5 800] ------- [5:255 -1:255 26 0] [0x2 5 1 [29 0] [14 4]] (REQUEST)
r 1.148717643 _15_ RTR  --- 0 AODV 48 [0 ffffffff 5 800] ------- [5:255 -1:255 26 0] [0x2 5 1 [29 0] [14 4]] (REQUEST)
r 1.149027795 _31_ RTR  --- 0 AODV 48 [0 ffffffff 24 800] ------- [36:255 -1:255 26 0] [0x2 5 1 [29 0] [14 4]] (REQUEST)
r 1.149027982 _35_ RTR  --- 0 AODV 48 [0 ffffffff 24 800] ------- [36:255 -1:255 26 0] [0x2 5 1 [29 0] [14 4]] (REQUEST)
r 1.149027982 _37_ RTR  --- 0 AODV 48 [0 ffffffff 24 800] ------- [36:255 -1:255 26 0] [0x2 5 1 [29 0] [14 4]] (REQUEST)
r 1.149028072 _32_ RTR  --- 0 AODV 48 [0 ffffffff 24 800] ------- [36:255 -1:255 26 0] [0x2 5 1 [29 0] [14 4]] (REQUEST)
r 1.149028072 _30_ RTR  --- 0 AODV 48 [0 ffffffff 24 800] ------- [36:255 -1:255 26 0] [0x2 5 1 [29 0] [14 4]] (REQUEST)
r 1.149028109 _26_ RTR  --- 0 AODV 48 [0 ffffffff 24 800] ------- [36:255 -1:255 26 0] [0x2 5 1 [29 0] [14 4]] (REQUEST)
r 1.149028284 _27_ RTR  --- 0 AODV 48 [0 ffffffff 24 800] ------- [36:255 -1:255 26 0] [0x2 5 1 [29 0] [14 4]] (REQUEST)
s 1.149322407 _26_ RTR  --- 0 AODV 48 [0 ffffffff 19 800] ------- [26:255 -1:255 28 0] [0x2 3 1 [31 0] [30 4]] (REQUEST)
s 1.149356886 _15_ RTR  --- 0 AODV 48 [0 ffffffff 19 800] ------- [15:255 -1:255 28 0] [0x2 3 1 [31 0] [30 4]] (REQUEST)
s 1.149740185 _37_ RTR  --- 0 AODV 48 [0 ffffffff 24 800] ------- [37:255 -1:255 28 0] [0x2 3 1 [31 0] [30 4]] (REQUEST)
s 1.150507835 _39_ RTR  --- 0 AODV 48 [0 ffffffff 21 800] ------- [39:255 -1:255 29 0] [0x2 2 1 [21 0] [33 4]] (REQUEST)
s 1.151339689 _29_ RTR  --- 0 AODV 48 [0 ffffffff 21 800] ------- [29:255 -1:255 29 0] [0x2 2 1 [21 0] [33 4]] (REQUEST)
r 1.151344574 _5_ RTR  --- 0 AODV 48 [0 ffffffff 0 800] ------- [0:255 -1:255 26 0] [0x2 5 1 [29 0] [14 4]] (REQUEST)
r 1.151344764 _1_ RTR  --- 0 AODV 48 [0 ffffffff 0 800] ------- [0:255 -1:255 26 0] [0x2 5 1 [29 0] [14 4]] (REQUEST)
r 1.151344852 _6_ RTR  --- 0 AODV 48 [0 ffffffff 0 800] ------- [0:255 -1:255 26 0] [0x2 5 1 [29 0] [14 4]] (REQUEST)
r 1.151344887 _10_ RTR  --- 0 AODV 48 [0 ffffffff 0 800] ------- [0:255 -1:255 26 0] [0x2 5 1 [29 0] [14 4]] (REQUEST)
s 1.151413292 _34_ RTR  --- 0 AODV 48 [0 ffffffff 21 800] ------- [34:255 -1:255 29 0] [0x2 2 1 [21 0] [33 4]] (REQUEST)
s 1.151605519 _35_ RTR  --- 0 AODV 48 [0 ffffffff 24 800] ------- [35:255 -1:255 25 0] [0x2 6 1 [29 0] [14 4]] (REQUEST)
s 1.152750511 _30_ RTR  --- 0 AODV 48 [0 ffffffff 24 800] ------- [30:255 -1:255 25 0] [0x2 6 1 [29 0] [14 4]] (REQUEST)
r 1.153995283 _25_ RTR  --- 0 AODV 48 [0 ffffffff 14 800] ------- [20:255 -1:255 28 0] [0x2 3 1 [31 0] [30 4]] (REQUEST)
r 1.153995286 _15_ RTR  --- 0 AODV 48 [0 ffffffff 14 800] ------- [20:255 -1:255 28 0] [0x2 3 1 [31 0] [30 4]] (REQUEST)
r 1.154005540 _26_ RTR  --- 0 AODV 48 [0 ffffffff 15 800] ------- [21:255 -1:255 28 0] [0x2 3 1 [31 0] [30 4]] (REQUEST)
r 1.154005543 _16_ RTR  --- 0 AODV 48 [0 ffffffff 15 800] ------- [21:255 -1:255 28 0] [0x2 3 1 [31 0] [30 4]] (REQUEST)
r 1.154005730 _22_ RTR  --- 0 AODV 48 [0 ffffffff 15 800] ------- [21:255 -1:255 28 0] [0x2 3 1 [31 0] [30 4]] (REQUEST)
r 1.154005818 _27_ RTR  --- 0 AODV 48 [0 ffffffff 15 800] ------- [21:255 -1:255 28 0] [0x2 3 1 [31 0] [30 4]] (REQUEST)
s 1.154527107 _15_ RTR  --- 0 AODV 48 [0 ffffffff 5 800] ------- [15:255 -1:255 25 0] [0x2 6 1 [29 0] [14 4]] (REQUEST)
s 1.154878248 _38_ RTR  --- 0 AODV 48 [0 ffffffff 21 800] ------- [38:255 -1:255 29 0] [0x2 2 1 [21 0] [33 4]] (REQUEST)
r 1.156992825 _25_ RTR  --- 0 AODV 48 [0 ffffffff 1e 800] ------- [30:255 -1:255 25 0] [0x2 6 1 [29 0] [14 4]] (REQUEST)
r 1.156992825 _35_ RTR  --- 0 AODV 48 [0 ffffffff 1e 800] ------- [30:255 -1:255 25 0] [0x2 6 1 [29 0] [14 4]] (REQUEST)
r 1.156993011 _31_ RTR  --- 0 AODV 48 [0 ffffffff 1e 800] ------- [30:255 -1:255 25 0] [0x2 6 1 [29 0] [14 4]] (REQUEST)
r 1.156993101 _26_ RTR  --- 0 AODV 48 [0 ffffffff 1e 800] ------- [30:255 -1:255 25 0] [0x2 6 1 [29 0] [14 4]] (REQUEST)
r 1.156993101 _36_ RTR  --- 0 AODV 48 [0 ffffffff 1e 800] ------- [30:255 -1:255 25 0] [0x2 6 1 [29 0] [14 4]] (REQUEST)
r 1.156993135 _20_ RTR  --- 0 AODV 48 [0 ffffffff 1e 800] ------- [30:255 -1:255 25 0] [0x2 6 1 [29 0] [14 4]] (REQUEST)
r 1.157658460 _29_ RTR  --- 0 AODV 48 [0 ffffffff 22 800] ------- [34:255 -1:255 27 0] [0x2 4 1 [29 0] [14 4]] (REQUEST)
s 1.158610938 _27_ RTR  --- 0 AODV 48 [0 ffffffff 15 800] ------- [27:255 -1:255 27 0] [0x2 4 1 [31 0] [30 4]] (REQUEST)
r 1.159615199 _10_ RTR  --- 0 AODV 48 [0 ffffffff f 800] ------- [15:255 -1:255 28 0] [0x2 3 1 [31 0] [30 4]] (REQUEST)
r 1.159615199 _20_ RTR  --- 0 AODV 48 [0 ffffffff f 800] ------- [15:255 -1:255 28 0] [0x2 3 1 [31 0] [30 4]] (REQUEST)
r 1.159615386 _16_ RTR  --- 0 AODV 48 [0 ffffffff f 800] ------- [15:255 -1:255 28 0] [0x2 3 1 [31 0] [30 4]] (REQUEST)
r 1.159615476 _11_ RTR  --- 0 AODV 48 [0 ffffffff f 800] ------- [15:255 -1:255 28 0] [0x2 3 1 [31 0] [30 4]] (REQUEST)
r 1.159615476 _21_ RTR  --- 0 AODV 48 [0 ffffffff f 800] ------- [15:255 -1:255 28 0] [0x2 3 1 [31 0] [30 4]] (REQUEST)
r 1.159615509 _25_ RTR  --- 0 AODV 48 [0 ffffffff f 800] ------- [15:255 -1:255 28 0] [0x2 3 1 [31 0] [30 4]] (REQUEST)
r 1.159615513 _5_ RTR  --- 0 AODV 48 [0 ffffffff f 800] ------- [15:255 -1:255 28 0] [0x2 3 1 [31 0] [30 4]] (REQUEST)
r 1.159615688 _6_ RTR  --- 0 AODV 48 [0 ffffffff f 800] ------- [15:255 -1:255 28 0] [0x2 3 1 [31 0] [30 4]] (REQUEST)
r 1.160848561 _33_ RTR  --- 0 AODV 48 [0 ffffffff 26 800] ------- [38:255 -1:255 29 0] [0x2 2 1 [21 0] [33 4]] (REQUEST)
r 1.160848748 _37_ RTR  --- 0 AODV 48 [0 ffffffff 26 800] ------- [38:255 -1:255 29 0] [0x2 2 1 [21 0] [33 4]] (REQUEST)
r 1.160848748 _39_ RTR  --- 0 AODV 48 [0 ffffffff 26 800] ------- [38:255 -1:255 29 0] [0x2 2 1 [21 0] [33 4]] (REQUEST)
r 1.160848838 _34_ RTR  --- 0 AODV 48 [0 ffffffff 26 800] ------- [38:255 -1:255 29 0] [0x2 2 1 [21 0] [33 4]] (REQUEST)
r 1.160848838 _32_ RTR  --- 0 AODV 48 [0 ffffffff 26 800] ------- [38:255 -1:255 29 0] [0x2 2 1 [21 0] [33 4]] (REQUEST)
r 1.160848874 _28_ RTR  --- 0 AODV 48 [0 ffffffff 26 800] ------- [38:255 -1:255 29 0] [0x2 2 1 [21 0] [33 4]] (REQUEST)
r 1.160849049 _29_ RTR  --- 0 AODV 48 [0 ffffffff 26 800] ------- [38:255 -1:255 29 0] [0x2 2 1 [21 0] [33 4]] (REQUEST)
s 1.160912600 _11_ RTR  --- 0 AODV 48 [0 ffffffff f 800] ------- [11:255 -1:255 27 0] [0x2 4 1 [31 0] [30 4]] (REQUEST)
s 1.162346943 _10_ RTR  --- 0 AODV 48 [0 ffffffff f 800] ------- [10:255 -1:255 27 0] [0x2 4 1 [31 0] [30 4]] (REQUEST)
r 1.162527199 _10_ RTR  --- 0 AODV 48 [0 ffffffff f 800] ------- [15:255 -1:255 25 0] [0x2 6 1 [29 0] [14 4]] (REQUEST)
r 1.162527199 _20_ RTR  --- 0 AODV 48 [0 ffffffff f 800] ------- [15:255 -1:255 25 0] [0x2 6 1 [29 0] [14 4]] (REQUEST)
r 1.162527386 _16_ RTR  --- 0 AODV 48 [0 ffffffff f 800] ------- [15:255 -1:255 25 0] [0x2 6 1 [29 0] [14 4]] (REQUEST)
r 1.162527476 _11_ RTR  --- 0 AODV 48 [0 ffffffff f 800] ------- [15:255 -1:255 25 0] [0x2 6 1 [29 0] [14 4]] (REQUEST)
r 1.162527476 _21_ RTR  --- 0 AODV 48 [0 ffffffff f 800] ------- [15:255 -1:255 25 0] [0x2 6 1 [29 0] [14 4]] (REQUEST)
r 1.162527509 _25_ RTR  --- 0 AODV 48 [0 ffffffff f 800] ------- [15:255 -1:255 25 0] [0x2 6 1 [29 0] [14 4]] (REQUEST)
r 1.162527513 _5_ RTR  --- 0 AODV 48 [0 ffffffff f 800] ------- [15:255 -1:255 25 0] [0x2 6 1 [29 0] [14 4]] (REQUEST)
r 1.162527688 _6_ RTR  --- 0 AODV 48 [0 ffffffff f 800] ------- [15:255 -1:255 25 0] [0x2 6 1 [29 0] [14 4]] (REQUEST)
s 1.162673698 _22_ RTR  --- 0 AODV 48 [0 ffffffff 15 800] ------- [22:255 -1:255 27 0] [0x2 4 1 [31 0] [30 4]] (REQUEST)
s 1.162943485 _25_ RTR  --- 0 AODV 48 [0 ffffffff 1e 800] ------- [25:255 -1:255 24 0] [0x2 7 1 [29 0] [14 4]] (REQUEST)
s 1.163011988 _16_ RTR  --- 0 AODV 48 [0 ffffffff 15 800] ------- [16:255 -1:255 27 0] [0x2 4 1 [31 0] [30 4]] (REQUEST)
r 1.164218460 _29_ RTR  --- 0 AODV 48 [0 ffffffff 22 800] ------- [34:255 -1:255 29 0] [0x2 2 1 [21 0] [33 4]] (REQUEST)
r 1.164218460 _39_ RTR  --- 0 AODV 48 [0 ffffffff 22 800] ------- [34:255 -1:255 29 0] [0x2 2 1 [21 0] [33 4]] (REQUEST)
r 1.164218647 _33_ RTR  --- 0 AODV 48 [0 ffffffff 22 800] ------- [34:255 -1:255 29 0] [0x2 2 1 [21 0] [33 4]] (REQUEST)
r 1.164218737 _28_ RTR  --- 0 AODV 48 [0 ffffffff 22 800] ------- [34:255 -1:255 29 0] [0x2 2 1 [21 0] [33 4]] (REQUEST)
r 1.164218737 _38_ RTR  --- 0 AODV 48 [0 ffffffff 22 800] ------- [34:255 -1:255 29 0] [0x2 2 1 [21 0] [33 4]] (REQUEST)
r 1.164218770 _24_ RTR  --- 0 AODV 48 [0 ffffffff 22 800] ------- [34:255 -1:255 29 0] [0x2 2 1 [21 0] [33 4]] (REQUEST)
s 1.165027350 _20_ RTR  --- 0 AODV 48 [0 ffffffff 1e 800] ------- [20:255 -1:255 24 0] [0x2 7 1 [29 0] [14 4]] (REQUEST)
r 1.165154913 _6_ RTR  --- 0 AODV 48 [0 ffffffff b 800] ------- [11:255 -1:255 27 0] [0x2 4 1 [31 0] [30 4]] (REQUEST)
r 1.165154913 _16_ RTR  --- 0 AODV 48 [0 ffffffff b 800] ------- [11:255 -1:255 27 0] [0x2 4 1 [31 0] [30 4]] (REQUEST)