s 1.106011134 _26_ AGT  --- 0 tcp 40 [0 0 0 0] ------- [26:1 9:2 32 0] [0 0] 0 0
r 1.106011134 _26_ RTR  --- 0 tcp 40 [0 0 0 0] ------- [26:1 9:2 32 0] [0 0] 0 0
s 1.106011134 _26_ RTR  --- 0 AODV 48 [0 0 0 0] ------- [26:255 -1:255 30 0] [0x2 1 1 [9 0] [26 4]] (REQUEST)
r 1.109933340 _21_ RTR  --- 0 AODV 48 [0 ffffffff 1a 800] ------- [26:255 -1:255 30 0] [0x2 1 1 [9 0] [26 4]] (REQUEST)
r 1.109933344 _31_ RTR  --- 0 AODV 48 [0 ffffffff 1a 800] ------- [26:255 -1:255 30 0] [0x2 1 1 [9 0] [26 4]] (REQUEST)
r 1.109933467 _25_ RTR  --- 0 AODV 48 [0 ffffffff 1a 800] ------- [26:255 -1:255 30 0] [0x2 1 1 [9 0] [26 4]] (REQUEST)
r 1.109933467 _27_ RTR  --- 0 AODV 48 [0 ffffffff 1a 800] ------- [26:255 -1:255 30 0] [0x2 1 1 [9 0] [26 4]] (REQUEST)
r 1.109933526 _22_ RTR  --- 0 AODV 48 [0 ffffffff 1a 800] ------- [26:255 -1:255 30 0] [0x2 1 1 [9 0] [26 4]] (REQUEST)
r 1.109933526 _20_ RTR  --- 0 AODV 48 [0 ffffffff 1a 800] ------- [26:255 -1:255 30 0] [0x2 1 1 [9 0] [26 4]] (REQUEST)
r 1.109933528 _30_ RTR  --- 0 AODV 48 [0 ffffffff 1a 800] ------- [26:255 -1:255 30 0] [0x2 1 1 [9 0] [26 4]] (REQUEST)
r 1.109933528 _32_ RTR  --- 0 AODV 48 [0 ffffffff 1a 800] ------- [26:255 -1:255 30 0] [0x2 1 1 [9 0] [26 4]] (REQUEST)
r 1.109933550 _16_ RTR  --- 0 AODV 48 [0 ffffffff 1a 800] ------- [26:255 -1:255 30 0] [0x2 1 1 [9 0] [26 4]] (REQUEST)
r 1.109933550 _36_ RTR  --- 0 AODV 48 [0 ffffffff 1a 800] ------- [26:255 -1:255 30 0] [0x2 1 1 [9 0] [26 4]] (REQUEST)
r 1.109933667 _17_ RTR  --- 0 AODV 48 [0 ffffffff 1a 800] ------- [26:255 -1:255 30 0] [0x2 1 1 [9 0] [26 4]] (REQUEST)
r 1.109933667 _15_ RTR  --- 0 AODV 48 [0 ffffffff 1a 800] ------- [26:255 -1:255 30 0] [0x2 1 1 [9 0] [26 4]] (REQUEST)
r 1.109933667 _35_ RTR  --- 0 AODV 48 [0 ffffffff 1a 800] ------- [26:255 -1:255 30 0] [0x2 1 1 [9 0] [26 4]] (REQUEST)
r 1.109933667 _37_ RTR  --- 0 AODV 48 [0 ffffffff 1a 800] ------- [26:255 -1:255 30 0] [0x2 1 1 [9 0] [26 4]] (REQUEST)
r 1.109933757 _11_ RTR  --- 0 AODV 48 [0 ffffffff 1a 800] ------- [26:255 -1:255 30 0] [0x2 1 1 [9 0] [26 4]] (REQUEST)
r 1.109933800 _28_ RTR  --- 0 AODV 48 [0 ffffffff 1a 800] ------- [26:255 -1:255 30 0] [0x2 1 1 [9 0] [26 4]] (REQUEST)
r 1.109933832 _23_ RTR  --- 0 AODV 48 [0 ffffffff 1a 800] ------- [26:255 -1:255 30 0] [0x2 1 1 [9 0] [26 4]] (REQUEST)
r 1.109933833 _33_ RTR  --- 0 AODV 48 [0 ffffffff 1a 800] ------- [26:255 -1:255 30 0] [0x2 1 1 [9 0] [26 4]] (REQUEST)
r 1.109933840 _12_ RTR  --- 0 AODV 48 [0 ffffffff 1a 800] ------- [26:255 -1:255 30 0] [0x2 1 1 [9 0] [26 4]] (REQUEST)
r 1.109933840 _10_ RTR  --- 0 AODV 48 [0 ffffffff 1a 800] ------- [26:255 -1:255 30 0] [0x2 1 1 [9 0] [26 4]] (REQUEST)
r 1.109933920 _18_ RTR  --- 0 AODV 48 [0 ffffffff 1a 800] ------- [26:255 -1:255 30 0] [0x2 1 1 [9 0] [26 4]] (REQUEST)
r 1.109933920 _38_ RTR  --- 0 AODV 48 [0 ffffffff 1a 800] ------- [26:255 -1:255 30 0] [0x2 1 1 [9 0] [26 4]] (REQUEST)
r 1.109933967 _6_ RTR  --- 0 AODV 48 [0 ffffffff 1a 800] ------- [26:255 -1:255 30 0] [0x2 1 1 [9 0] [26 4]] (REQUEST)
s 1.110328586 _36_ RTR  --- 0 AODV 48 [0 ffffffff 1a 800] ------- [36:255 -1:255 29 0] [0x2 2 1 [9 0] [26 4]] (REQUEST)
s 1.110520736 _11_ RTR  --- 0 AODV 48 [0 ffffffff 1a 800] ------- [11:255 -1:255 29 0] [0x2 2 1 [9 0] [26 4]] (REQUEST)
s 1.110578418 _30_ RTR  --- 0 AODV 48 [0 ffffffff 1a 800] ------- [30:255 -1:255 29 0] [0x2 2 1 [9 0] [26 4]] (REQUEST)
s 1.111518663 _22_ RTR  --- 0 AODV 48 [0 ffffffff 1a 800] ------- [22:255 -1:255 29 0] [0x2 2 1 [9 0] [26 4]] (REQUEST)
s 1.111700376 _32_ RTR  --- 0 AODV 48 [0 ffffffff 1a 800] ------- [32:255 -1:255 29 0] [0x2 2 1 [9 0] [26 4]] (REQUEST)
s 1.112201974 _35_ RTR  --- 0 AODV 48 [0 ffffffff 1a 800] ------- [35:255 -1:255 29 0] [0x2 2 1 [9 0] [26 4]] (REQUEST)
s 1.112223609 _10_ RTR  --- 0 AODV 48 [0 ffffffff 1a 800] ------- [10:255 -1:255 29 0] [0x2 2 1 [9 0] [26 4]] (REQUEST)
s 1.112288932 _20_ RTR  --- 0 AODV 48 [0 ffffffff 1a 800] ------- [20:255 -1:255 29 0] [0x2 2 1 [9 0] [26 4]] (REQUEST)
s 1.113333414 _28_ RTR  --- 0 AODV 48 [0 ffffffff 1a 800] ------- [28:255 -1:255 29 0] [0x2 2 1 [9 0] [26 4]] (REQUEST)
r 1.114250792 _31_ RTR  --- 0 AODV 48 [0 ffffffff 24 800] ------- [36:255 -1:255 29 0] [0x2 2 1 [9 0] [26 4]] (REQUEST)
r 1.114250919 _35_ RTR  --- 0 AODV 48 [0 ffffffff 24 800] ------- [36:255 -1:255 29 0] [0x2 2 1 [9 0] [26 4]] (REQUEST)
r 1.114250919 _37_ RTR  --- 0 AODV 48 [0 ffffffff 24 800] ------- [36:255 -1:255 29 0] [0x2 2 1 [9 0] [26 4]] (REQUEST)
r 1.114250978 _32_ RTR  --- 0 AODV 48 [0 ffffffff 24 800] ------- [36:255 -1:255 29 0] [0x2 2 1 [9 0] [26 4]] (REQUEST)
r 1.114250978 _30_ RTR  --- 0 AODV 48 [0 ffffffff 24 800] ------- [36:255 -1:255 29 0] [0x2 2 1 [9 0] [26 4]] (REQUEST)
r 1.114251002 _26_ RTR  --- 0 AODV 48 [0 ffffffff 24 800] ------- [36:255 -1:255 29 0] [0x2 2 1 [9 0] [26 4]] (REQUEST)
r 1.114251119 _27_ RTR  --- 0 AODV 48 [0 ffffffff 24 800] ------- [36:255 -1:255 29 0] [0x2 2 1 [9 0] [26 4]] (REQUEST)
r 1.114251119 _25_ RTR  --- 0 AODV 48 [0 ffffffff 24 800] ------- [36:255 -1:255 29 0] [0x2 2 1 [9 0] [26 4]] (REQUEST)
r 1.114251209 _21_ RTR  --- 0 AODV 48 [0 ffffffff 24 800] ------- [36:255 -1:255 29 0] [0x2 2 1 [9 0] [26 4]] (REQUEST)
r 1.114251252 _38_ RTR  --- 0 AODV 48 [0 ffffffff 24 800] ------- [36:255 -1:255 29 0] [0x2 2 1 [9 0] [26 4]] (REQUEST)
r 1.114251284 _33_ RTR  --- 0 AODV 48 [0 ffffffff 24 800] ------- [36:255 -1:255 29 0] [0x2 2 1 [9 0] [26 4]] (REQUEST)
r 1.114251292 _22_ RTR  --- 0 AODV 48 [0 ffffffff 24 800] ------- [36:255 -1:255 29 0] [0x2 2 1 [9 0] [26 4]] (REQUEST)
r 1.114251292 _20_ RTR  --- 0 AODV 48 [0 ffffffff 24 800] ------- [36:255 -1:255 29 0] [0x2 2 1 [9 0] [26 4]] (REQUEST)
r 1.114251372 _28_ RTR  --- 0 AODV 48 [0 ffffffff 24 800] ------- [36:255 -1:255 29 0] [0x2 2 1 [9 0] [26 4]] (REQUEST)
r 1.114251419 _16_ RTR  --- 0 AODV 48 [0 ffffffff 24 800] ------- [36:255 -1:255 29 0] [0x2 2 1 [9 0] [26 4]] (REQUEST)
s 1.114267943 _12_ RTR  --- 0 AODV 48 [0 ffffffff 1a 800] ------- [12:255 -1:255 29 0] [0x2 2 1 [9 0] [26 4]] (REQUEST)
s 1.114352351 _18_ RTR  --- 0 AODV 48 [0 ffffffff 1a 800] ------- [18:255 -1:255 29 0] [0x2 2 1 [9 0] [26 4]] (REQUEST)
s 1.114533704 _6_ RTR  --- 0 AODV 48 [0 ffffffff 1a 800] ------- [6:255 -1:255 29 0] [0x2 2 1 [9 0] [26 4]] (REQUEST)
s 1.114781081 _21_ RTR  --- 0 AODV 48 [0 ffffffff 1a 800] ------- [21:255 -1:255 29 0] [0x2 2 1 [9 0] [26 4]] (REQUEST)
s 1.115718679 _17_ RTR  --- 0 AODV 48 [0 ffffffff 1a 800] ------- [17:255 -1:255 29 0] [0x2 2 1 [9 0] [26 4]] (REQUEST)
s 1.116162366 _25_ RTR  --- 0 AODV 48 [0 ffffffff 1a 800] ------- [25:255 -1:255 29 0] [0x2 2 1 [9 0] [26 4]] (REQUEST)
s 1.116304627 _33_ RTR  --- 0 AODV 48 [0 ffffffff 1a 800] ------- [33:255 -1:255 29 0] [0x2 2 1 [9 0] [26 4]] (REQUEST)
r 1.116582582 _37_ RTR  --- 0 AODV 48 [0 ffffffff 20 800] ------- [32:255 -1:255 29 0] [0x2 2 1 [9 0] [26 4]] (REQUEST)
r 1.116582586 _27_ RTR  --- 0 AODV 48 [0 ffffffff 20 800] ------- [32:255 -1:255 29 0] [0x2 2 1 [9 0] [26 4]] (REQUEST)
r 1.116582709 _31_ RTR  --- 0 AODV 48 [0 ffffffff 20 800] ------- [32:255 -1:255 29 0] [0x2 2 1 [9 0] [26 4]] (REQUEST)
r 1.116582709 _33_ RTR  --- 0 AODV 48 [0 ffffffff 20 800] ------- [32:255 -1:255 29 0] [0x2 2 1 [9 0] [26 4]] (REQUEST)
r 1.116582768 _36_ RTR  --- 0 AODV 48 [0 ffffffff 20 800] ------- [32:255 -1:255 29 0] [0x2 2 1 [9 0] [26 4]] (REQUEST)
r 1.116582768 _38_ RTR  --- 0 AODV 48 [0 ffffffff 20 800] ------- [32:255 -1:255 29 0] [0x2 2 1 [9 0] [26 4]] (REQUEST)
r 1.116582770 _28_ RTR  --- 0 AODV 48 [0 ffffffff 20 800] ------- [32:255 -1:255 29 0] [0x2 2 1 [9 0] [26 4]] (REQUEST)
r 1.116582770 _26_ RTR  --- 0 AODV 48 [0 ffffffff 20 800] ------- [32:255 -1:255 29 0] [0x2 2 1 [9 0] [26 4]] (REQUEST)
r 1.116582792 _22_ RTR  --- 0 AODV 48 [0 ffffffff 20 800] ------- [32:255 -1:255 29 0] [0x2 2 1 [9 0] [26 4]] (REQUEST)
r 1.116582909 _23_ RTR  --- 0 AODV 48 [0 ffffffff 20 800] ------- [32:255 -1:255 29 0] [0x2 2 1 [9 0] [26 4]] (REQUEST)
r 1.116583042 _34_ RTR  --- 0 AODV 48 [0 ffffffff 20 800] ------- [32:255 -1:255 29 0] [0x2 2 1 [9 0] [26 4]] (REQUEST)
r 1.116583074 _39_ RTR  --- 0 AODV 48 [0 ffffffff 20 800] ------- [32:255 -1:255 29 0] [0x2 2 1 [9 0] [26 4]] (REQUEST)
r 1.116583075 _29_ RTR  --- 0 AODV 48 [0 ffffffff 20 800] ------- [32:255 -1:255 29 0] [0x2 2 1 [9 0] [26 4]] (REQUEST)
r 1.116785816 _15_ RTR  --- 0 AODV 48 [0 ffffffff a 800] ------- [10:255 -1:255 29 0] [0x2 2 1 [9 0] [26 4]] (REQUEST)
r 1.116785819 _5_ RTR  --- 0 AODV 48 [0 ffffffff a 800] ------- [10:255 -1:255 29 0] [0x2 2 1 [9 0] [26 4]] (REQUEST)
r 1.116785942 _11_ RTR  --- 0 AODV 48 [0 ffffffff a 800] ------- [10:255 -1:255 29 0] [0x2 2 1 [9 0] [26 4]] (REQUEST)
r 1.116786001 _16_ RTR  --- 0 AODV 48 [0 ffffffff a 800] ------- [10:255 -1:255 29 0] [0x2 2 1 [9 0] [26 4]] (REQUEST)
r 1.116786003 _6_ RTR  --- 0 AODV 48 [0 ffffffff a 800] ------- [10:255 -1:255 29 0] [0x2 2 1 [9 0] [26 4]] (REQUEST)
r 1.116786026 _0_ RTR  --- 0 AODV 48 [0 ffffffff a 800] ------- [10:255 -1:255 29 0] [0x2 2 1 [9 0] [26 4]] (REQUEST)
r 1.116786026 _20_ RTR  --- 0 AODV 48 [0 ffffffff a 800] ------- [10:255 -1:255 29 0] [0x2 2 1 [9 0] [26 4]] (REQUEST)
r 1.116786143 _1_ RTR  --- 0 AODV 48 [0 ffffffff a 800] ------- [10:255 -1:255 29 0] [0x2 2 1 [9 0] [26 4]] (REQUEST)
s 1.116995749 _15_ RTR  --- 0 AODV 48 [0 ffffffff 1a 800] ------- [15:255 -1:255 29 0] [0x2 2 1 [9 0] [26 4]] (REQUEST)
s 1.116998805 _29_ RTR  --- 0 AODV 48 [0 ffffffff 20 800] ------- [29:255 -1:255 28 0] [0x2 3 1 [9 0] [26 4]] (REQUEST)
s 1.117339609 _1_ RTR  --- 0 AODV 48 [0 ffffffff a 800] ------- [1:255 -1:255 28 0] [0x2 3 1 [9 0] [26 4]] (REQUEST)
s 1.117874211 _23_ RTR  --- 0 AODV 48 [0 ffffffff 1a 800] ------- [23:255 -1:255 29 0] [0x2 2 1 [9 0] [26 4]] (REQUEST)
s 1.118236080 _37_ RTR  --- 0 AODV 48 [0 ffffffff 1a 800] ------- [37:255 -1:255 29 0] [0x2 2 1 [9 0] [26 4]] (REQUEST)
s 1.118247537 _34_ RTR  --- 0 AODV 48 [0 ffffffff 20 800] ------- [34:255 -1:255 28 0] [0x2 3 1 [9 0] [26 4]] (REQUEST)
s 1.118441295 _27_ RTR  --- 0 AODV 48 [0 ffffffff 1a 800] ------- [27:255 -1:255 29 0] [0x2 2 1 [9 0] [26 4]] (REQUEST)
s 1.118512116 _39_ RTR  --- 0 AODV 48 [0 ffffffff 20 800] ------- [39:255 -1:255 28 0] [0x2 3 1 [9 0] [26 4]] (REQUEST)
s 1.118646998 _16_ RTR  --- 0 AODV 48 [0 ffffffff 1a 800] ------- [16:255 -1:255 29 0] [0x2 2 1 [9 0] [26 4]] (REQUEST)
s 1.118901352 _31_ RTR  --- 0 AODV 48 [0 ffffffff 1a 800] ------- [31:255 -1:255 29 0] [0x2 2 1 [9 0] [26 4]] (REQUEST)
s 1.118929400 _0_ RTR  --- 0 AODV 48 [0 ffffffff a 800] ------- [0:255 -1:255 28 0] [0x2 3 1 [9 0] [26 4]] (REQUEST)
r 1.119023291 _16_ RTR  --- 0 AODV 48 [0 ffffffff 15 800] ------- [21:255 -1:255 29 0] [0x2 2 1 [9 0] [26 4]] (REQUEST)
r 1.119023414 _22_ RTR  --- 0 AODV 48 [0 ffffffff 15 800] ------- [21:255 -1:255 29 0] [0x2 2 1 [9 0] [26 4]] (REQUEST)
r 1.119023473 _27_ RTR  --- 0 AODV 48 [0 ffffffff 15 800] ------- [21:255 -1:255 29 0] [0x2 2 1 [9 0] [26 4]] (REQUEST)
r 1.119023475 _17_ RTR  --- 0 AODV 48 [0 ffffffff 15 800] ------- [21:255 -1:255 29 0] [0x2 2 1 [9 0] [26 4]] (REQUEST)
r 1.119023498 _11_ RTR  --- 0 AODV 48 [0 ffffffff 15 800] ------- [21:255 -1:255 29 0] [0x2 2 1 [9 0] [26 4]] (REQUEST)
r 1.119023615 _12_ RTR  --- 0 AODV 48 [0 ffffffff 15 800] ------- [21:255 -1:255 29 0] [0x2 2 1 [9 0] [26 4]] (REQUEST)
r 1.119108624 _35_ RTR  --- 0 AODV 48 [0 ffffffff 1e 800] ------- [30:255 -1:255 29 0] [0x2 2 1 [9 0] [26 4]] (REQUEST)
s 1.119333108 _38_ RTR  --- 0 AODV 48 [0 ffffffff 1a 800] ------- [38:255 -1:255 29 0] [0x2 2 1 [9 0] [26 4]] (REQUEST)
s 1.120377161 _5_ RTR  --- 0 AODV 48 [0 ffffffff a 800] ------- [5:255 -1:255 28 0] [0x2 3 1 [9 0] [26 4]] (REQUEST)
r 1.121368886 _12_ RTR  --- 0 AODV 48 [0 ffffffff 11 800] ------- [17:255 -1:255 29 0] [0x2 2 1 [9 0] [26 4]] (REQUEST)
r 1.121368889 _22_ RTR  --- 0 AODV 48 [0 ffffffff 11 800] ------- [17:255 -1:255 29 0] [0x2 2 1 [9 0] [26 4]] (REQUEST)
r 1.121369013 _16_ RTR  --- 0 AODV 48 [0 ffffffff 11 800] ------- [17:255 -1:255 29 0] [0x2 2 1 [9 0] [26 4]] (REQUEST)
r 1.121369013 _18_ RTR  --- 0 AODV 48 [0 ffffffff 11 800] ------- [17:255 -1:255 29 0] [0x2 2 1 [9 0] [26 4]] (REQUEST)
r 1.121369072 _13_ RTR  --- 0 AODV 48 [0 ffffffff 11 800] ------- [17:255 -1:255 29 0] [0x2 2 1 [9 0] [26 4]] (REQUEST)
r 1.121369072 _11_ RTR  --- 0 AODV 48 [0 ffffffff 11 800] ------- [17:255 -1:255 29 0] [0x2 2 1 [9 0] [26 4]] (REQUEST)
r 1.121369096 _7_ RTR  --- 0 AODV 48 [0 ffffffff 11 800] ------- [17:255 -1:255 29 0] [0x2 2 1 [9 0] [26 4]] (REQUEST)
r 1.121369213 _8_ RTR  --- 0 AODV 48 [0 ffffffff 11 800] ------- [17:255 -1:255 29 0] [0x2 2 1 [9 0] [26 4]] (REQUEST)
r 1.121369213 _6_ RTR  --- 0 AODV 48 [0 ffffffff 11 800] ------- [17:255 -1:255 29 0] [0x2 2 1 [9 0] [26 4]] (REQUEST)
r 1.121369303 _2_ RTR  --- 0 AODV 48 [0 ffffffff 11 800] ------- [17:255 -1:255 29 0] [0x2 2 1 [9 0] [26 4]] (REQUEST)
r 1.121369386 _3_ RTR  --- 0 AODV 48 [0 ffffffff 11 800] ------- [17:255 -1:255 29 0] [0x2 2 1 [9 0] [26 4]] (REQUEST)
r 1.121372181 _30_ RTR  --- 0 AODV 48 [0 ffffffff 23 800] ------- [35:255 -1:255 29 0] [0x2 2 1 [9 0] [26 4]] (REQUEST)
r 1.121518287 _32_ RTR  --- 0 AODV 48 [0 ffffffff 25 800] ------- [37:255 -1:255 29 0] [0x2 2 1 [9 0] [26 4]] (REQUEST)
r 1.121518414 _38_ RTR  --- 0 AODV 48 [0 ffffffff 25 800] ------- [37:255 -1:255 29 0] [0x2 2 1 [9 0] [26 4]] (REQUEST)
s 1.121724641 _2_ RTR  --- 0 AODV 48 [0 ffffffff 11 800] ------- [2:255 -1:255 28 0] [0x2 3 1 [9 0] [26 4]] (REQUEST)
r 1.123949816 _6_ RTR  --- 0 AODV 48 [0 ffffffff 1 800] ------- [1:255 -1:255 28 0] [0x2 3 1 [9 0] [26 4]] (REQUEST)
r 1.123949942 _0_ RTR  --- 0 AODV 48 [0 ffffffff 1 800] ------- [1:255 -1:255 28 0] [0x2 3 1 [9 0] [26 4]] (REQUEST)
r 1.123949942 _2_ RTR  --- 0 AODV 48 [0 ffffffff 1 800] ------- [1:255 -1:255 28 0] [0x2 3 1 [9 0] [26 4]] (REQUEST)
r 1.123950001 _5_ RTR  --- 0 AODV 48 [0 ffffffff 1 800] ------- [1:255 -1:255 28 0] [0x2 3 1 [9 0] [26 4]] (REQUEST)
r 1.123950001 _7_ RTR  --- 0 AODV 48 [0 ffffffff 1 800] ------- [1:255 -1:255 28 0] [0x2 3 1 [9 0] [26 4]] (REQUEST)
r 1.123950026 _11_ RTR  --- 0 AODV 48 [0 ffffffff 1 800] ------- [1:255 -1:255 28 0] [0x2 3 1 [9 0] [26 4]] (REQUEST)
r 1.123950143 _10_ RTR  --- 0 AODV 48 [0 ffffffff 1 800] ------- [1:255 -1:255 28 0] [0x2 3 1 [9 0] [26 4]] (REQUEST)
r 1.123950143 _12_ RTR  --- 0 AODV 48 [0 ffffffff 1 800] ------- [1:255 -1:255 28 0] [0x2 3 1 [9 0] [26 4]] (REQUEST)
r 1.123950232 _16_ RTR  --- 0 AODV 48 [0 ffffffff 1 800] ------- [1:255 -1:255 28 0] [0x2 3 1 [9 0] [26 4]] (REQUEST)
r 1.123950276 _3_ RTR  --- 0 AODV 48 [0 ffffffff 1 800] ------- [1:255 -1:255 28 0] [0x2 3 1 [9 0] [26 4]] (REQUEST)
r 1.123950307 _8_ RTR  --- 0 AODV 48 [0 ffffffff 1 800] ------- [1:255 -1:255 28 0] [0x2 3 1 [9 0] [26 4]] (REQUEST)
r 1.123950316 _15_ RTR  --- 0 AODV 48 [0 ffffffff 1 800] ------- [1:255 -1:255 28 0] [0x2 3 1 [9 0] [26 4]] (REQUEST)
r 1.123950316 _17_ RTR  --- 0 AODV 48 [0 ffffffff 1 800] ------- [1:255 -1:255 28 0] [0x2 3 1 [9 0] [26 4]] (REQUEST)
r 1.123950395 _13_ RTR  --- 0 AODV 48 [0 ffffffff 1 800] ------- [1:255 -1:255 28 0] [0x2 3 1 [9 0] [26 4]] (REQUEST)
r 1.123950442 _21_ RTR  --- 0 AODV 48 [0 ffffffff 1 800] ------- [1:255 -1:255 28 0] [0x2 3 1 [9 0] [26 4]] (REQUEST)
s 1.124133170 _13_ RTR  --- 0 AODV 48 [0 ffffffff 11 800] ------- [13:255 -1:255 28 0] [0x2 3 1 [9 0] [26 4]] (REQUEST)
s 1.124921830 _7_ RTR  --- 0 AODV 48 [0 ffffffff 11 800] ------- [7:255 -1:255 28 0] [0x2 3 1 [9 0] [26 4]] (REQUEST)
s 1.126405439 _24_ AGT  --- 1 tcp 40 [0 0 0 0] ------- [24:0 21:0 32 0] [0 0] 0 0
r 1.126405439 _24_ RTR  --- 1 tcp 40 [0 0 0 0] ------- [24:0 21:0 32 0] [0 0] 0 0
s 1.126405439 _24_ RTR  --- 0 AODV 48 [0 0 0 0] ------- [24:255 -1:255 30 0] [0x2 1 1 [21 0] [24 4]] (REQUEST)
r 1.126835139 _25_ RTR  --- 0 AODV 48 [0 ffffffff 14 800] ------- [20:255 -1:255 29 0] [0x2 2 1 [9 0] [26 4]] (REQUEST)
r 1.126835142 _15_ RTR  --- 0 AODV 48 [0 ffffffff 14 800] ------- [20:255 -1:255 29 0] [0x2 2 1 [9 0] [26 4]] (REQUEST)
r 1.126835266 _21_ RTR  --- 0 AODV 48 [0 ffffffff 14 800] ------- [20:255 -1:255 29 0] [0x2 2 1 [9 0] [26 4]] (REQUEST)
r 1.126835325 _26_ RTR  --- 0 AODV 48 [0 ffffffff 14 800] ------- [20:255 -1:255 29 0] [0x2 2 1 [9 0] [26 4]] (REQUEST)
r 1.126835326 _16_ RTR  --- 0 AODV 48 [0 ffffffff 14 800] ------- [20:255 -1:255 29 0] [0x2 2 1 [9 0] [26 4]] (REQUEST)
r 1.126835349 _10_ RTR  --- 0 AODV 48 [0 ffffffff 14 800] ------- [20:255 -1:255 29 0] [0x2 2 1 [9 0] [26 4]] (REQUEST)
r 1.126835349 _30_ RTR  --- 0 AODV 48 [0 ffffffff 14 800] ------- [20:255 -1:255 29 0] [0x2 2 1 [9 0] [26 4]] (REQUEST)
r 1.126835466 _11_ RTR  --- 0 AODV 48 [0 ffffffff 14 800] ------- [20:255 -1:255 29 0] [0x2 2 1 [9 0] [26 4]] (REQUEST)
r 1.126835466 _31_ RTR  --- 0 AODV 48 [0 ffffffff 14 800] ------- [20:255 -1:255 29 0] [0x2 2 1 [9 0] [26 4]] (REQUEST)
r 1.126835556 _35_ RTR  --- 0 AODV 48 [0 ffffffff 14 800] ------- [20:255 -1:255 29 0] [0x2 2 1 [9 0] [26 4]] (REQUEST)
r 1.126835559 _5_ RTR  --- 0 AODV 48 [0 ffffffff 14 800] ------- [20:255 -1:255 29 0] [0x2 2 1 [9 0] [26 4]] (REQUEST)
r 1.126835599 _22_ RTR  --- 0 AODV 48 [0 ffffffff 14 800] ------- [20:255 -1:255 29 0] [0x2 2 1 [9 0] [26 4]] (REQUEST)
r 1.126835630 _27_ RTR  --- 0 AODV 48 [0 ffffffff 14 800] ------- [20:255 -1:255 29 0] [0x2 2 1 [9 0] [26 4]] (REQUEST)
r 1.126835631 _17_ RTR  --- 0 AODV 48 [0 ffffffff 14 800] ------- [20:255 -1:255 29 0] [0x2 2 1 [9 0] [26 4]] (REQUEST)
r 1.126835639 _36_ RTR  --- 0 AODV 48 [0 ffffffff 14 800] ------- [20:255 -1:255 29 0] [0x2 2 1 [9 0] [26 4]] (REQUEST)
r 1.126835642 _6_ RTR  --- 0 AODV 48 [0 ffffffff 14 800] ------- [20:255 -1:255 29 0] [0x2 2 1 [9 0] [26 4]] (REQUEST)
r 1.126835719 _12_ RTR  --- 0 AODV 48 [0 ffffffff 14 800] ------- [20:255 -1:255 29 0] [0x2 2 1 [9 0] [26 4]] (REQUEST)
r 1.126835719 _32_ RTR  --- 0 AODV 48 [0 ffffffff 14 800] ------- [20:255 -1:255 29 0] [0x2 2 1 [9 0] [26 4]] (REQUEST)
r 1.126835766 _0_ RTR  --- 0 AODV 48 [0 ffffffff 14 800] ------- [20:255 -1:255 29 0] [0x2 2 1 [9 0] [26 4]] (REQUEST)
s 1.127838335 _39_ AGT  --- 2 tcp 40 [0 0 0 0] ------- [39:0 27:0 32 0] [0 0] 0 0
r 1.127838335 _39_ RTR  --- 2 tcp 40 [0 0 0 0] ------- [39:0 27:0 32 0] [0 0] 0 0
s 1.127838335 _39_ RTR  --- 0 AODV 48 [0 0 0 0] ------- [39:255 -1:255 30 0] [0x2 1 1 [27 0] [39 4]] (REQUEST)
s 1.127844555 _3_ RTR  --- 0 AODV 48 [0 ffffffff 11 800] ------- [3:255 -1:255 28 0] [0x2 3 1 [9 0] [26 4]] (REQUEST)
r 1.129164037 _2_ RTR  --- 0 AODV 48 [0 ffffffff 7 800] ------- [7:255 -1:255 28 0] [0x2 3 1 [9 0] [26 4]] (REQUEST)
r 1.129164040 _12_ RTR  --- 0 AODV 48 [0 ffffffff 7 800] ------- [7:255 -1:255 28 0] [0x2 3 1 [9 0] [26 4]] (REQUEST)
r 1.129164163 _8_ RTR  --- 0 AODV 48 [0 ffffffff 7 800] ------- [7:255 -1:255 28 0] [0x2 3 1 [9 0] [26 4]] (REQUEST)
r 1.129164222 _3_ RTR  --- 0 AODV 48 [0 ffffffff 7 800] ------- [7:255 -1:255 28 0] [0x2 3 1 [9 0] [26 4]] (REQUEST)
r 1.129164224 _13_ RTR  --- 0 AODV 48 [0 ffffffff 7 800] ------- [7:255 -1:255 28 0] [0x2 3 1 [9 0] [26 4]] (REQUEST)
r 1.129271315 _33_ RTR  --- 0 AODV 48 [0 ffffffff 26 800] ------- [38:255 -1:255 29 0] [0x2 2 1 [9 0] [26 4]] (REQUEST)
r 1.129271442 _37_ RTR  --- 0 AODV 48 [0 ffffffff 26 800] ------- [38:255 -1:255 29 0] [0x2 2 1 [9 0] [26 4]] (REQUEST)
r 1.129271442 _39_ RTR  --- 0 AODV 48 [0 ffffffff 26 800] ------- [38:255 -1:255 29 0] [0x2 2 1 [9 0] [26 4]] (REQUEST)
r 1.129271501 _34_ RTR  --- 0 AODV 48 [0 ffffffff 26 800] ------- [38:255 -1:255 29 0] [0x2 2 1 [9 0] [26 4]] (REQUEST)
r 1.129271501 _32_ RTR  --- 0 AODV 48 [0 ffffffff 26 800] ------- [38:255 -1:255 29 0] [0x2 2 1 [9 0] [26 4]] (REQUEST)
r 1.129271525 _28_ RTR  --- 0 AODV 48 [0 ffffffff 26 800] ------- [38:255 -1:255 29 0] [0x2 2 1 [9 0] [26 4]] (REQUEST)
r 1.129271642 _29_ RTR  --- 0 AODV 48 [0 ffffffff 26 800] ------- [38:255 -1:255 29 0] [0x2 2 1 [9 0] [26 4]] (REQUEST)
r 1.129355367 _0_ RTR  --- 0 AODV 48 [0 ffffffff 5 800] ------- [5:255 -1:255 28 0] [0x2 3 1 [9 0] [26 4]] (REQUEST)
r 1.129355371 _10_ RTR  --- 0 AODV 48 [0 ffffffff 5 800] ------- [5:255 -1:255 28 0] [0x2 3 1 [9 0] [26 4]] (REQUEST)
r 1.129355577 _15_ RTR  --- 0 AODV 48 [0 ffffffff 5 800] ------- [5:255 -1:255 28 0] [0x2 3 1 [9 0] [26 4]] (REQUEST)
s 1.130852222 _8_ RTR  --- 0 AODV 48 [0 ffffffff 11 800] ------- [8:255 -1:255 28 0] [0x2 3 1 [9 0] [26 4]] (REQUEST)
r 1.131694277 _13_ RTR  --- 0 AODV 48 [0 ffffffff c 800] ------- [12:255 -1:255 29 0] [0x2 2 1 [9 0] [26 4]] (REQUEST)
r 1.131694336 _18_ RTR  --- 0 AODV 48 [0 ffffffff c 800] ------- [12:255 -1:255 29 0] [0x2 2 1 [9 0] [26 4]] (REQUEST)
r 1.131787069 _10_ RTR  --- 0 AODV 48 [0 ffffffff b 800] ------- [11:255 -1:255 29 0] [0x2 2 1 [9 0] [26 4]] (REQUEST)
r 1.131787128 _15_ RTR  --- 0 AODV 48 [0 ffffffff b 800] ------- [11:255 -1:255 29 0] [0x2 2 1 [9 0] [26 4]] (REQUEST)
r 1.134345205 _11_ RTR  --- 0 AODV 48 [0 ffffffff 10 800] ------- [16:255 -1:255 29 0] [0x2 2 1 [9 0] [26 4]] (REQUEST)
r 1.134345208 _21_ RTR  --- 0 AODV 48 [0 ffffffff 10 800] ------- [16:255 -1:255 29 0] [0x2 2 1 [9 0] [26 4]] (REQUEST)
r 1.134345332 _15_ RTR  --- 0 AODV 48 [0 ffffffff 10 800] ------- [16:255 -1:255 29 0] [0x2 2 1 [9 0] [26 4]] (REQUEST)
r 1.134345332 _17_ RTR  --- 0 AODV 48 [0 ffffffff 10 800] ------- [16:255 -1:255 29 0] [0x2 2 1 [9 0] [26 4]] (REQUEST)
r 1.134345391 _12_ RTR  --- 0 AODV 48 [0 ffffffff 10 800] ------- [16:255 -1:255 29 0] [0x2 2 1 [9 0] [26 4]] (REQUEST)
r 1.134345391 _10_ RTR  --- 0 AODV 48 [0 ffffffff 10 800] ------- [16:255 -1:255 29 0] [0x2 2 1 [9 0] [26 4]] (REQUEST)
r 1.134345392 _20_ RTR  --- 0 AODV 48 [0 ffffffff 10 800] ------- [16:255 -1:255 29 0] [0x2 2 1 [9 0] [26 4]] (REQUEST)
r 1.134345392 _22_ RTR  --- 0 AODV 48 [0 ffffffff 10 800] ------- [16:255 -1:255 29 0] [0x2 2 1 [9 0] [26 4]] (REQUEST)
r 1.134345415 _6_ RTR  --- 0 AODV 48 [0 ffffffff 10 800] ------- [16:255 -1:255 29 0] [0x2 2 1 [9 0] [26 4]] (REQUEST)
r 1.134345415 _26_ RTR  --- 0 AODV 48 [0 ffffffff 10 800] ------- [16:255 -1:255 29 0] [0x2 2 1 [9 0] [26 4]] (REQUEST)
r 1.134345532 _7_ RTR  --- 0 AODV 48 [0 ffffffff 10 800] ------- [16:255 -1:255 29 0] [0x2 2 1 [9 0] [26 4]] (REQUEST)
r 1.134345532 _5_ RTR  --- 0 AODV 48 [0 ffffffff 10 800] ------- [16:255 -1:255 29 0] [0x2 2 1 [9 0] [26 4]] (REQUEST)
r 1.134345532 _25_ RTR  --- 0 AODV 48 [0 ffffffff 10 800] ------- [16:255 -1:255 29 0] [0x2 2 1 [9 0] [26 4]] (REQUEST)
r 1.134345532 _27_ RTR  --- 0 AODV 48 [0 ffffffff 10 800] ------- [16:255 -1:255 29 0] [0x2 2 1 [9 0] [26 4]] (REQUEST)
r 1.134345622 _1_ RTR  --- 0 AODV 48 [0 ffffffff 10 800] ------- [16:255 -1:255 29 0] [0x2 2 1 [9 0] [26 4]] (REQUEST)
r 1.134345625 _31_ RTR  --- 0 AODV 48 [0 ffffffff 10 800] ------- [16:255 -1:255 29 0] [0x2 2 1 [9 0] [26 4]] (REQUEST)
r 1.134345665 _18_ RTR  --- 0 AODV 48 [0 ffffffff 10 800] ------- [16:255 -1:255 29 0] [0x2 2 1 [9 0] [26 4]] (REQUEST)
r 1.134345696 _13_ RTR  --- 0 AODV 48 [0 ffffffff 10 800] ------- [16:255 -1:255 29 0] [0x2 2 1 [9 0] [26 4]] (REQUEST)
r 1.134345697 _23_ RTR  --- 0 AODV 48 [0 ffffffff 10 800] ------- [16:255 -1:255 29 0] [0x2 2 1 [9 0] [26 4]] (REQUEST)
r 1.134345705 _2_ RTR  --- 0 AODV 48 [0 ffffffff 10 800] ------- [16:255 -1:255 29 0] [0x2 2 1 [9 0] [26 4]] (REQUEST)
r 1.134345705 _0_ RTR  --- 0 AODV 48 [0 ffffffff 10 800] ------- [16:255 -1:255 29 0] [0x2 2 1 [9 0] [26 4]] (REQUEST)
r 1.134345708 _30_ RTR  --- 0 AODV 48 [0 ffffffff 10 800] ------- [16:255 -1:255 29 0] [0x2 2 1 [9 0] [26 4]] (REQUEST)
r 1.134345708 _32_ RTR  --- 0 AODV 48 [0 ffffffff 10 800] ------- [16:255 -1:255 29 0] [0x2 2 1 [9 0] [26 4]] (REQUEST)
r 1.134345784 _8_ RTR  --- 0 AODV 48 [0 ffffffff 10 800] ------- [16:255 -1:255 29 0] [0x2 2 1 [9 0] [26 4]] (REQUEST)
r 1.134345784 _28_ RTR  --- 0 AODV 48 [0 ffffffff 10 800] ------- [16:255 -1:255 29 0] [0x2 2 1 [9 0] [26 4]] (REQUEST)
r 1.134345832 _36_ RTR  --- 0 AODV 48 [0 ffffffff 10 800] ------- [16:255 -1:255 29 0] [0x2 2 1 [9 0] [26 4]] (REQUEST)
r 1.136694888 _4_ RTR  --- 0 AODV 48 [0 ffffffff 3 800] ------- [3:255 -1:255 28 0] [0x2 3 1 [9 0] [26 4]] (REQUEST)
r 1.136694947 _9_ RTR  --- 0 AODV 48 [0 ffffffff 3 800] ------- [3:255 -1:255 28 0] [0x2 3 1 [9 0] [26 4]] (REQUEST)
s 1.136694947 _9_ RTR  --- 0 AODV 44 [0 0 0 0] ------- [9:255 26:255 30 3] [0x4 1 [9 4] 10.000000] (REPLY)
r 1.136782974 _1_ RTR  --- 0 AODV 48 [0 ffffffff 2 800] ------- [2:255 -1:255 28 0] [0x2 3 1 [9 0] [26 4]] (REQUEST)
r 1.136783033 _6_ RTR  --- 0 AODV 48 [0 ffffffff 2 800] ------- [2:255 -1:255 28 0] [0x2 3 1 [9 0] [26 4]] (REQUEST)
r 1.139015559 _36_ RTR  --- 0 AODV 48 [0 ffffffff 1f 800] ------- [31:255 -1:255 29 0] [0x2 2 1 [9 0] [26 4]] (REQUEST)
r 1.139015562 _26_ RTR  --- 0 AODV 48 [0 ffffffff 1f 800] ------- [31:255 -1:255 29 0] [0x2 2 1 [9 0] [26 4]] (REQUEST)
r 1.139015686 _30_ RTR  --- 0 AODV 48 [0 ffffffff 1f 800] ------- [31:255 -1:255 29 0] [0x2 2 1 [9 0] [26 4]] (REQUEST)
r 1.139015686 _32_ RTR  --- 0 AODV 48 [0 ffffffff 1f 800] ------- [31:255 -1:255 29 0] [0x2 2 1 [9 0] [26 4]] (REQUEST)
r 1.139015744 _35_ RTR  --- 0 AODV 48 [0 ffffffff 1f 800] ------- [31:255 -1:255 29 0] [0x2 2 1 [9 0] [26 4]] (REQUEST)
r 1.139015744 _37_ RTR  --- 0 AODV 48 [0 ffffffff 1f 800] ------- [31:255 -1:255 29 0] [0x2 2 1 [9 0] [26 4]] (REQUEST)
r 1.139015746 _27_ RTR  --- 0 AODV 48 [0 ffffffff 1f 800] ------- [31:255 -1:255 29 0] [0x2 2 1 [9 0] [26 4]] (REQUEST)
r 1.139015746 _25_ RTR  --- 0 AODV 48 [0 ffffffff 1f 800] ------- [31:255 -1:255 29 0] [0x2 2 1 [9 0] [26 4]] (REQUEST)
r 1.139015769 _21_ RTR  --- 0 AODV 48 [0 ffffffff 1f 800] ------- [31:255 -1:255 29 0] [0x2 2 1 [9 0] [26 4]] (REQUEST)
r 1.139015886 _22_ RTR  --- 0 AODV 48 [0 ffffffff 1f 800] ------- [31:255 -1:255 29 0] [0x2 2 1 [9 0] [26 4]] (REQUEST)
r 1.139015886 _20_ RTR  --- 0 AODV 48 [0 ffffffff 1f 800] ------- [31:255 -1:255 29 0] [0x2 2 1 [9 0] [26 4]] (REQUEST)
r 1.139015979 _16_ RTR  --- 0 AODV 48 [0 ffffffff 1f 800] ------- [31:255 -1:255 29 0] [0x2 2 1 [9 0] [26 4]] (REQUEST)
r 1.139016019 _33_ RTR  --- 0 AODV 48 [0 ffffffff 1f 800] ------- [31:255 -1:255 29 0] [0x2 2 1 [9 0] [26 4]] (REQUEST)
r 1.139016050 _38_ RTR  --- 0 AODV 48 [0 ffffffff 1f 800] ------- [31:255 -1:255 29 0] [0x2 2 1 [9 0] [26 4]] (REQUEST)
r 1.139016051 _28_ RTR  --- 0 AODV 48 [0 ffffffff 1f 800] ------- [31:255 -1:255 29 0] [0x2 2 1 [9 0] [26 4]] (REQUEST)
r 1.139016062 _17_ RTR  --- 0 AODV 48 [0 ffffffff 1f 800] ------- [31:255 -1:255 29 0] [0x2 2 1 [9 0] [26 4]] (REQUEST)
r 1.139016062 _15_ RTR  --- 0 AODV 48 [0 ffffffff 1f 800] ------- [31:255 -1:255 29 0] [0x2 2 1 [9 0] [26 4]] (REQUEST)
r 1.139016138 _23_ RTR  --- 0 AODV 48 [0 ffffffff 1f 800] ------- [31:255 -1:255 29 0] [0x2 2 1 [9 0] [26 4]] (REQUEST)
r 1.139016186 _11_ RTR  --- 0 AODV 48 [0 ffffffff 1f 800] ------- [31:255 -1:255 29 0] [0x2 2 1 [9 0] [26 4]] (REQUEST)
r 1.142075502 _22_ RTR  --- 0 AODV 48 [0 ffffffff 1b 800] ------- [27:255 -1:255 29 0] [0x2 2 1 [9 0] [26 4]] (REQUEST)
r 1.142075505 _32_ RTR  --- 0 AODV 48 [0 ffffffff 1b 800] ------- [27:255 -1:255 29 0] [0x2 2 1 [9 0] [26 4]] (REQUEST)
r 1.142075628 _26_ RTR  --- 0 AODV 48 [0 ffffffff 1b 800] ------- [27:255 -1:255 29 0] [0x2 2 1 [9 0] [26 4]] (REQUEST)
r 1.142075628 _28_ RTR  --- 0 AODV 48 [0 ffffffff 1b 800] ------- [27:255 -1:255 29 0] [0x2 2 1 [9 0] [26 4]] (REQUEST)
r 1.142075687 _23_ RTR  --- 0 AODV 48 [0 ffffffff 1b 800] ------- [27:255 -1:255 29 0] [0x2 2 1 [9 0] [26 4]] (REQUEST)
r 1.142075687 _21_ RTR  --- 0 AODV 48 [0 ffffffff 1b 800] ------- [27:255 -1:255 29 0] [0x2 2 1 [9 0] [26 4]] (REQUEST)
r 1.142075689 _31_ RTR  --- 0 AODV 48 [0 ffffffff 1b 800] ------- [27:255 -1:255 29 0] [0x2 2 1 [9 0] [26 4]] (REQUEST)
r 1.142075689 _33_ RTR  --- 0 AODV 48 [0 ffffffff 1b 800] ------- [27:255 -1:255 29 0] [0x2 2 1 [9 0] [26 4]] (REQUEST)
r 1.142075712 _17_ RTR  --- 0 AODV 48 [0 ffffffff 1b 800] ------- [27:255 -1:255 29 0] [0x2 2 1 [9 0] [26 4]] (REQUEST)
r 1.142075712 _37_ RTR  --- 0 AODV 48 [0 ffffffff 1b 800] ------- [27:255 -1:255 29 0] [0x2 2 1 [9 0] [26 4]] (REQUEST)
r 1.142075828 _18_ RTR  --- 0 AODV 48 [0 ffffffff 1b 800] ------- [27:255 -1:255 29 0] [0x2 2 1 [9 0] [26 4]] (REQUEST)
r 1.142075828 _16_ RTR  --- 0 AODV 48 [0 ffffffff 1b 800] ------- [27:255 -1:255 29 0] [0x2 2 1 [9 0] [26 4]] (REQUEST)
r 1.142075828 _36_ RTR  --- 0 AODV 48 [0 ffffffff 1b 800] ------- [27:255 -1:255 29 0] [0x2 2 1 [9 0] [26 4]] (REQUEST)
r 1.142075828 _38_ RTR  --- 0 AODV 48 [0 ffffffff 1b 800] ------- [27:255 -1:255 29 0] [0x2 2 1 [9 0] [26 4]] (REQUEST)
r 1.142075918 _12_ RTR  --- 0 AODV 48 [0 ffffffff 1b 800] ------- [27:255 -1:255 29 0] [0x2 2 1 [9 0] [26 4]] (REQUEST)
r 1.142075962 _25_ RTR  --- 0 AODV 48 [0 ffffffff 1b 800] ------- [27:255 -1:255 29 0] [0x2 2 1 [9 0] [26 4]] (REQUEST)
r 1.142075962 _29_ RTR  --- 0 AODV 48 [0 ffffffff 1b 800] ------- [27:255 -1:255 29 0] [0x2 2 1 [9 0] [26 4]] (REQUEST)
r 1.142075993 _24_ RTR  --- 0 AODV 48 [0 ffffffff 1b 800] ------- [27:255 -1:255 29 0] [0x2 2 1 [9 0] [26 4]] (REQUEST)
r 1.142075993 _20_ RTR  --- 0 AODV 48 [0 ffffffff 1b 800] ------- [27:255 -1:255 29 0] [0x2 2 1 [9 0] [26 4]] (REQUEST)
r 1.142075994 _30_ RTR  --- 0 AODV 48 [0 ffffffff 1b 800] ------- [27:255 -1:255 29 0] [0x2 2 1 [9 0] [26 4]] (REQUEST)
r 1.142075994 _34_ RTR  --- 0 AODV 48 [0 ffffffff 1b 800] ------- [27:255 -1:255 29 0] [0x2 2 1 [9 0] [26 4]] (REQUEST)
r 1.142076002 _13_ RTR  --- 0 AODV 48 [0 ffffffff 1b 800] ------- [27:255 -1:255 29 0] [0x2 2 1 [9 0] [26 4]] (REQUEST)
r 1.142076002 _11_ RTR  --- 0 AODV 48 [0 ffffffff 1b 800] ------- [27:255 -1:255 29 0] [0x2 2 1 [9 0] [26 4]] (REQUEST)
r 1.142076081 _19_ RTR  --- 0 AODV 48 [0 ffffffff 1b 800] ------- [27:255 -1:255 29 0] [0x2 2 1 [9 0] [26 4]] (REQUEST)
r 1.142076081 _15_ RTR  --- 0 AODV 48 [0 ffffffff 1b 800] ------- [27:255 -1:255 29 0] [0x2 2 1 [9 0] [26 4]] (REQUEST)
r 1.142076081 _35_ RTR  --- 0 AODV 48 [0 ffffffff 1b 800] ------- [27:255 -1:255 29 0] [0x2 2 1 [9 0] [26 4]] (REQUEST)
r 1.142076081 _39_ RTR  --- 0 AODV 48 [0 ffffffff 1b 800] ------- [27:255 -1:255 29 0] [0x2 2 1 [9 0] [26 4]] (REQUEST)