s 1.106011134 _6_ AGT  --- 0 tcp 40 [0 0 0 0] ------- [6:0 28:0 32 0] [0 0] 0 0
r 1.106011134 _6_ RTR  --- 0 tcp 40 [0 0 0 0] ------- [6:0 28:0 32 0] [0 0] 0 0
s 1.106011134 _6_ RTR  --- 0 AODV 48 [0 0 0 0] ------- [6:255 -1:255 30 0] [0x2 1 1 [28 0] [6 4]] (REQUEST)
r 1.109933237 _1_ RTR  --- 0 AODV 48 [0 ffffffff 6 800] ------- [6:255 -1:255 30 0] [0x2 1 1 [28 0] [6 4]] (REQUEST)
r 1.109933237 _11_ RTR  --- 0 AODV 48 [0 ffffffff 6 800] ------- [6:255 -1:255 30 0] [0x2 1 1 [28 0] [6 4]] (REQUEST)
r 1.109933300 _5_ RTR  --- 0 AODV 48 [0 ffffffff 6 800] ------- [6:255 -1:255 30 0] [0x2 1 1 [28 0] [6 4]] (REQUEST)
r 1.109933300 _7_ RTR  --- 0 AODV 48 [0 ffffffff 6 800] ------- [6:255 -1:255 30 0] [0x2 1 1 [28 0] [6 4]] (REQUEST)
r 1.109933330 _2_ RTR  --- 0 AODV 48 [0 ffffffff 6 800] ------- [6:255 -1:255 30 0] [0x2 1 1 [28 0] [6 4]] (REQUEST)
r 1.109933330 _0_ RTR  --- 0 AODV 48 [0 ffffffff 6 800] ------- [6:255 -1:255 30 0] [0x2 1 1 [28 0] [6 4]] (REQUEST)
r 1.109933330 _10_ RTR  --- 0 AODV 48 [0 ffffffff 6 800] ------- [6:255 -1:255 30 0] [0x2 1 1 [28 0] [6 4]] (REQUEST)
r 1.109933330 _12_ RTR  --- 0 AODV 48 [0 ffffffff 6 800] ------- [6:255 -1:255 30 0] [0x2 1 1 [28 0] [6 4]] (REQUEST)
r 1.109933340 _16_ RTR  --- 0 AODV 48 [0 ffffffff 6 800] ------- [6:255 -1:255 30 0] [0x2 1 1 [28 0] [6 4]] (REQUEST)
r 1.109933399 _15_ RTR  --- 0 AODV 48 [0 ffffffff 6 800] ------- [6:255 -1:255 30 0] [0x2 1 1 [28 0] [6 4]] (REQUEST)
r 1.109933399 _17_ RTR  --- 0 AODV 48 [0 ffffffff 6 800] ------- [6:255 -1:255 30 0] [0x2 1 1 [28 0] [6 4]] (REQUEST)
r 1.109933447 _21_ RTR  --- 0 AODV 48 [0 ffffffff 6 800] ------- [6:255 -1:255 30 0] [0x2 1 1 [28 0] [6 4]] (REQUEST)
r 1.109933467 _8_ RTR  --- 0 AODV 48 [0 ffffffff 6 800] ------- [6:255 -1:255 30 0] [0x2 1 1 [28 0] [6 4]] (REQUEST)
r 1.109933483 _3_ RTR  --- 0 AODV 48 [0 ffffffff 6 800] ------- [6:255 -1:255 30 0] [0x2 1 1 [28 0] [6 4]] (REQUEST)
r 1.109933483 _13_ RTR  --- 0 AODV 48 [0 ffffffff 6 800] ------- [6:255 -1:255 30 0] [0x2 1 1 [28 0] [6 4]] (REQUEST)
r 1.109933488 _20_ RTR  --- 0 AODV 48 [0 ffffffff 6 800] ------- [6:255 -1:255 30 0] [0x2 1 1 [28 0] [6 4]] (REQUEST)
r 1.109933488 _22_ RTR  --- 0 AODV 48 [0 ffffffff 6 800] ------- [6:255 -1:255 30 0] [0x2 1 1 [28 0] [6 4]] (REQUEST)
r 1.109933526 _18_ RTR  --- 0 AODV 48 [0 ffffffff 6 800] ------- [6:255 -1:255 30 0] [0x2 1 1 [28 0] [6 4]] (REQUEST)
r 1.109933550 _26_ RTR  --- 0 AODV 48 [0 ffffffff 6 800] ------- [6:255 -1:255 30 0] [0x2 1 1 [28 0] [6 4]] (REQUEST)
r 1.109933582 _25_ RTR  --- 0 AODV 48 [0 ffffffff 6 800] ------- [6:255 -1:255 30 0] [0x2 1 1 [28 0] [6 4]] (REQUEST)
r 1.109933582 _27_ RTR  --- 0 AODV 48 [0 ffffffff 6 800] ------- [6:255 -1:255 30 0] [0x2 1 1 [28 0] [6 4]] (REQUEST)
r 1.109933591 _23_ RTR  --- 0 AODV 48 [0 ffffffff 6 800] ------- [6:255 -1:255 30 0] [0x2 1 1 [28 0] [6 4]] (REQUEST)
r 1.109933634 _9_ RTR  --- 0 AODV 48 [0 ffffffff 6 800] ------- [6:255 -1:255 30 0] [0x2 1 1 [28 0] [6 4]] (REQUEST)
r 1.109933644 _4_ RTR  --- 0 AODV 48 [0 ffffffff 6 800] ------- [6:255 -1:255 30 0] [0x2 1 1 [28 0] [6 4]] (REQUEST)
r 1.109933644 _14_ RTR  --- 0 AODV 48 [0 ffffffff 6 800] ------- [6:255 -1:255 30 0] [0x2 1 1 [28 0] [6 4]] (REQUEST)
r 1.109933654 _31_ RTR  --- 0 AODV 48 [0 ffffffff 6 800] ------- [6:255 -1:255 30 0] [0x2 1 1 [28 0] [6 4]] (REQUEST)
r 1.109933667 _28_ RTR  --- 0 AODV 48 [0 ffffffff 6 800] ------- [6:255 -1:255 30 0] [0x2 1 1 [28 0] [6 4]] (REQUEST)
s 1.109933667 _28_ RTR  --- 0 AODV 44 [0 0 0 0] ------- [28:255 6:255 30 6] [0x4 1 [28 4] 10.000000] (REPLY)
r 1.109933675 _19_ RTR  --- 0 AODV 48 [0 ffffffff 6 800] ------- [6:255 -1:255 30 0] [0x2 1 1 [28 0] [6 4]] (REQUEST)
r 1.109933680 _30_ RTR  --- 0 AODV 48 [0 ffffffff 6 800] ------- [6:255 -1:255 30 0] [0x2 1 1 [28 0] [6 4]] (REQUEST)
r 1.109933680 _32_ RTR  --- 0 AODV 48 [0 ffffffff 6 800] ------- [6:255 -1:255 30 0] [0x2 1 1 [28 0] [6 4]] (REQUEST)
r 1.109933724 _24_ RTR  --- 0 AODV 48 [0 ffffffff 6 800] ------- [6:255 -1:255 30 0] [0x2 1 1 [28 0] [6 4]] (REQUEST)
r 1.109933751 _33_ RTR  --- 0 AODV 48 [0 ffffffff 6 800] ------- [6:255 -1:255 30 0] [0x2 1 1 [28 0] [6 4]] (REQUEST)
r 1.109933757 _36_ RTR  --- 0 AODV 48 [0 ffffffff 6 800] ------- [6:255 -1:255 30 0] [0x2 1 1 [28 0] [6 4]] (REQUEST)
r 1.109933779 _35_ RTR  --- 0 AODV 48 [0 ffffffff 6 800] ------- [6:255 -1:255 30 0] [0x2 1 1 [28 0] [6 4]] (REQUEST)
r 1.109933779 _37_ RTR  --- 0 AODV 48 [0 ffffffff 6 800] ------- [6:255 -1:255 30 0] [0x2 1 1 [28 0] [6 4]] (REQUEST)
r 1.109933784 _29_ RTR  --- 0 AODV 48 [0 ffffffff 6 800] ------- [6:255 -1:255 30 0] [0x2 1 1 [28 0] [6 4]] (REQUEST)
r 1.109933840 _38_ RTR  --- 0 AODV 48 [0 ffffffff 6 800] ------- [6:255 -1:255 30 0] [0x2 1 1 [28 0] [6 4]] (REQUEST)
r 1.109933855 _34_ RTR  --- 0 AODV 48 [0 ffffffff 6 800] ------- [6:255 -1:255 30 0] [0x2 1 1 [28 0] [6 4]] (REQUEST)
r 1.109933933 _39_ RTR  --- 0 AODV 48 [0 ffffffff 6 800] ------- [6:255 -1:255 30 0] [0x2 1 1 [28 0] [6 4]] (REQUEST)
s 1.110328434 _15_ RTR  --- 0 AODV 48 [0 ffffffff 6 800] ------- [15:255 -1:255 29 0] [0x2 2 1 [28 0] [6 4]] (REQUEST)
s 1.110520462 _13_ RTR  --- 0 AODV 48 [0 ffffffff 6 800] ------- [13:255 -1:255 29 0] [0x2 2 1 [28 0] [6 4]] (REQUEST)
s 1.110578220 _10_ RTR  --- 0 AODV 48 [0 ffffffff 6 800] ------- [10:255 -1:255 29 0] [0x2 2 1 [28 0] [6 4]] (REQUEST)
s 1.110598602 _33_ RTR  --- 0 AODV 48 [0 ffffffff 6 800] ------- [33:255 -1:255 29 0] [0x2 2 1 [28 0] [6 4]] (REQUEST)
s 1.111451613 _19_ RTR  --- 0 AODV 48 [0 ffffffff 6 800] ------- [19:255 -1:255 29 0] [0x2 2 1 [28 0] [6 4]] (REQUEST)
s 1.111518467 _2_ RTR  --- 0 AODV 48 [0 ffffffff 6 800] ------- [2:255 -1:255 29 0] [0x2 2 1 [28 0] [6 4]] (REQUEST)
s 1.111700178 _12_ RTR  --- 0 AODV 48 [0 ffffffff 6 800] ------- [12:255 -1:255 29 0] [0x2 2 1 [28 0] [6 4]] (REQUEST)
s 1.112201774 _8_ RTR  --- 0 AODV 48 [0 ffffffff 6 800] ------- [8:255 -1:255 29 0] [0x2 2 1 [28 0] [6 4]] (REQUEST)
s 1.112223351 _25_ RTR  --- 0 AODV 48 [0 ffffffff 6 800] ------- [25:255 -1:255 29 0] [0x2 2 1 [28 0] [6 4]] (REQUEST)
s 1.112288736 _0_ RTR  --- 0 AODV 48 [0 ffffffff 6 800] ------- [0:255 -1:255 29 0] [0x2 2 1 [28 0] [6 4]] (REQUEST)
s 1.112562449 _38_ RTR  --- 0 AODV 48 [0 ffffffff 6 800] ------- [38:255 -1:255 29 0] [0x2 2 1 [28 0] [6 4]] (REQUEST)
s 1.113333102 _20_ RTR  --- 0 AODV 48 [0 ffffffff 6 800] ------- [20:255 -1:255 29 0] [0x2 2 1 [28 0] [6 4]] (REQUEST)
s 1.114267653 _26_ RTR  --- 0 AODV 48 [0 ffffffff 6 800] ------- [26:255 -1:255 29 0] [0x2 2 1 [28 0] [6 4]] (REQUEST)
s 1.114352013 _27_ RTR  --- 0 AODV 48 [0 ffffffff 6 800] ------- [27:255 -1:255 29 0] [0x2 2 1 [28 0] [6 4]] (REQUEST)
s 1.114533371 _9_ RTR  --- 0 AODV 48 [0 ffffffff 6 800] ------- [9:255 -1:255 29 0] [0x2 2 1 [28 0] [6 4]] (REQUEST)
s 1.114729017 _34_ RTR  --- 0 AODV 48 [0 ffffffff 6 800] ------- [34:255 -1:255 29 0] [0x2 2 1 [28 0] [6 4]] (REQUEST)
s 1.114780978 _1_ RTR  --- 0 AODV 48 [0 ffffffff 6 800] ------- [1:255 -1:255 29 0] [0x2 2 1 [28 0] [6 4]] (REQUEST)
r 1.114800570 _7_ RTR  --- 0 AODV 48 [0 ffffffff 2 800] ------- [2:255 -1:255 29 0] [0x2 2 1 [28 0] [6 4]] (REQUEST)
r 1.114800633 _3_ RTR  --- 0 AODV 48 [0 ffffffff 2 800] ------- [2:255 -1:255 29 0] [0x2 2 1 [28 0] [6 4]] (REQUEST)
r 1.114800663 _8_ RTR  --- 0 AODV 48 [0 ffffffff 2 800] ------- [2:255 -1:255 29 0] [0x2 2 1 [28 0] [6 4]] (REQUEST)
r 1.114820323 _5_ RTR  --- 0 AODV 48 [0 ffffffff a 800] ------- [10:255 -1:255 29 0] [0x2 2 1 [28 0] [6 4]] (REQUEST)
r 1.114820323 _15_ RTR  --- 0 AODV 48 [0 ffffffff a 800] ------- [10:255 -1:255 29 0] [0x2 2 1 [28 0] [6 4]] (REQUEST)
r 1.114820430 _20_ RTR  --- 0 AODV 48 [0 ffffffff a 800] ------- [10:255 -1:255 29 0] [0x2 2 1 [28 0] [6 4]] (REQUEST)
r 1.114840705 _28_ RTR  --- 0 AODV 48 [0 ffffffff 21 800] ------- [33:255 -1:255 29 0] [0x2 2 1 [28 0] [6 4]] (REQUEST)
r 1.114840705 _38_ RTR  --- 0 AODV 48 [0 ffffffff 21 800] ------- [33:255 -1:255 29 0] [0x2 2 1 [28 0] [6 4]] (REQUEST)
r 1.114840768 _32_ RTR  --- 0 AODV 48 [0 ffffffff 21 800] ------- [33:255 -1:255 29 0] [0x2 2 1 [28 0] [6 4]] (REQUEST)
r 1.114840768 _34_ RTR  --- 0 AODV 48 [0 ffffffff 21 800] ------- [33:255 -1:255 29 0] [0x2 2 1 [28 0] [6 4]] (REQUEST)
r 1.114840798 _29_ RTR  --- 0 AODV 48 [0 ffffffff 21 800] ------- [33:255 -1:255 29 0] [0x2 2 1 [28 0] [6 4]] (REQUEST)
r 1.114840798 _37_ RTR  --- 0 AODV 48 [0 ffffffff 21 800] ------- [33:255 -1:255 29 0] [0x2 2 1 [28 0] [6 4]] (REQUEST)
r 1.114840798 _39_ RTR  --- 0 AODV 48 [0 ffffffff 21 800] ------- [33:255 -1:255 29 0] [0x2 2 1 [28 0] [6 4]] (REQUEST)
r 1.114840867 _24_ RTR  --- 0 AODV 48 [0 ffffffff 21 800] ------- [33:255 -1:255 29 0] [0x2 2 1 [28 0] [6 4]] (REQUEST)
s 1.115114077 _35_ RTR  --- 0 AODV 48 [0 ffffffff 6 800] ------- [35:255 -1:255 29 0] [0x2 2 1 [28 0] [6 4]] (REQUEST)
s 1.115287250 _24_ RTR  --- 0 AODV 48 [0 ffffffff 6 800] ------- [24:255 -1:255 29 0] [0x2 2 1 [28 0] [6 4]] (REQUEST)
s 1.115335997 _32_ RTR  --- 0 AODV 48 [0 ffffffff 6 800] ------- [32:255 -1:255 29 0] [0x2 2 1 [28 0] [6 4]] (REQUEST)
s 1.115718411 _17_ RTR  --- 0 AODV 48 [0 ffffffff 6 800] ------- [17:255 -1:255 29 0] [0x2 2 1 [28 0] [6 4]] (REQUEST)
s 1.116162199 _5_ RTR  --- 0 AODV 48 [0 ffffffff 6 800] ------- [5:255 -1:255 29 0] [0x2 2 1 [28 0] [6 4]] (REQUEST)
s 1.116304320 _18_ RTR  --- 0 AODV 48 [0 ffffffff 6 800] ------- [18:255 -1:255 29 0] [0x2 2 1 [28 0] [6 4]] (REQUEST)
s 1.116995529 _21_ RTR  --- 0 AODV 48 [0 ffffffff 6 800] ------- [21:255 -1:255 29 0] [0x2 2 1 [28 0] [6 4]] (REQUEST)
r 1.117066538 _10_ RTR  --- 0 AODV 48 [0 ffffffff f 800] ------- [15:255 -1:255 29 0] [0x2 2 1 [28 0] [6 4]] (REQUEST)
r 1.117066541 _20_ RTR  --- 0 AODV 48 [0 ffffffff f 800] ------- [15:255 -1:255 29 0] [0x2 2 1 [28 0] [6 4]] (REQUEST)
r 1.117066601 _16_ RTR  --- 0 AODV 48 [0 ffffffff f 800] ------- [15:255 -1:255 29 0] [0x2 2 1 [28 0] [6 4]] (REQUEST)
r 1.117066631 _11_ RTR  --- 0 AODV 48 [0 ffffffff f 800] ------- [15:255 -1:255 29 0] [0x2 2 1 [28 0] [6 4]] (REQUEST)
r 1.117066632 _21_ RTR  --- 0 AODV 48 [0 ffffffff f 800] ------- [15:255 -1:255 29 0] [0x2 2 1 [28 0] [6 4]] (REQUEST)
r 1.117066641 _5_ RTR  --- 0 AODV 48 [0 ffffffff f 800] ------- [15:255 -1:255 29 0] [0x2 2 1 [28 0] [6 4]] (REQUEST)
r 1.117066644 _25_ RTR  --- 0 AODV 48 [0 ffffffff f 800] ------- [15:255 -1:255 29 0] [0x2 2 1 [28 0] [6 4]] (REQUEST)
r 1.117066700 _6_ RTR  --- 0 AODV 48 [0 ffffffff f 800] ------- [15:255 -1:255 29 0] [0x2 2 1 [28 0] [6 4]] (REQUEST)
r 1.117066703 _26_ RTR  --- 0 AODV 48 [0 ffffffff f 800] ------- [15:255 -1:255 29 0] [0x2 2 1 [28 0] [6 4]] (REQUEST)
r 1.117066744 _0_ RTR  --- 0 AODV 48 [0 ffffffff f 800] ------- [15:255 -1:255 29 0] [0x2 2 1 [28 0] [6 4]] (REQUEST)
r 1.117066748 _30_ RTR  --- 0 AODV 48 [0 ffffffff f 800] ------- [15:255 -1:255 29 0] [0x2 2 1 [28 0] [6 4]] (REQUEST)
r 1.117066768 _17_ RTR  --- 0 AODV 48 [0 ffffffff f 800] ------- [15:255 -1:255 29 0] [0x2 2 1 [28 0] [6 4]] (REQUEST)
r 1.117066783 _12_ RTR  --- 0 AODV 48 [0 ffffffff f 800] ------- [15:255 -1:255 29 0] [0x2 2 1 [28 0] [6 4]] (REQUEST)
r 1.117066784 _22_ RTR  --- 0 AODV 48 [0 ffffffff f 800] ------- [15:255 -1:255 29 0] [0x2 2 1 [28 0] [6 4]] (REQUEST)
r 1.117066786 _1_ RTR  --- 0 AODV 48 [0 ffffffff f 800] ------- [15:255 -1:255 29 0] [0x2 2 1 [28 0] [6 4]] (REQUEST)
r 1.117066789 _31_ RTR  --- 0 AODV 48 [0 ffffffff f 800] ------- [15:255 -1:255 29 0] [0x2 2 1 [28 0] [6 4]] (REQUEST)
r 1.117066827 _7_ RTR  --- 0 AODV 48 [0 ffffffff f 800] ------- [15:255 -1:255 29 0] [0x2 2 1 [28 0] [6 4]] (REQUEST)
r 1.117066828 _27_ RTR  --- 0 AODV 48 [0 ffffffff f 800] ------- [15:255 -1:255 29 0] [0x2 2 1 [28 0] [6 4]] (REQUEST)
r 1.117066851 _35_ RTR  --- 0 AODV 48 [0 ffffffff f 800] ------- [15:255 -1:255 29 0] [0x2 2 1 [28 0] [6 4]] (REQUEST)
r 1.117066883 _36_ RTR  --- 0 AODV 48 [0 ffffffff f 800] ------- [15:255 -1:255 29 0] [0x2 2 1 [28 0] [6 4]] (REQUEST)
r 1.117066890 _2_ RTR  --- 0 AODV 48 [0 ffffffff f 800] ------- [15:255 -1:255 29 0] [0x2 2 1 [28 0] [6 4]] (REQUEST)
r 1.117066892 _32_ RTR  --- 0 AODV 48 [0 ffffffff f 800] ------- [15:255 -1:255 29 0] [0x2 2 1 [28 0] [6 4]] (REQUEST)
r 1.117066934 _18_ RTR  --- 0 AODV 48 [0 ffffffff f 800] ------- [15:255 -1:255 29 0] [0x2 2 1 [28 0] [6 4]] (REQUEST)
r 1.117066945 _13_ RTR  --- 0 AODV 48 [0 ffffffff f 800] ------- [15:255 -1:255 29 0] [0x2 2 1 [28 0] [6 4]] (REQUEST)
r 1.117066946 _23_ RTR  --- 0 AODV 48 [0 ffffffff f 800] ------- [15:255 -1:255 29 0] [0x2 2 1 [28 0] [6 4]] (REQUEST)
r 1.117066968 _37_ RTR  --- 0 AODV 48 [0 ffffffff f 800] ------- [15:255 -1:255 29 0] [0x2 2 1 [28 0] [6 4]] (REQUEST)
r 1.117066975 _8_ RTR  --- 0 AODV 48 [0 ffffffff f 800] ------- [15:255 -1:255 29 0] [0x2 2 1 [28 0] [6 4]] (REQUEST)
r 1.117066977 _28_ RTR  --- 0 AODV 48 [0 ffffffff f 800] ------- [15:255 -1:255 29 0] [0x2 2 1 [28 0] [6 4]] (REQUEST)
r 1.117067023 _3_ RTR  --- 0 AODV 48 [0 ffffffff f 800] ------- [15:255 -1:255 29 0] [0x2 2 1 [28 0] [6 4]] (REQUEST)
r 1.117067025 _33_ RTR  --- 0 AODV 48 [0 ffffffff f 800] ------- [15:255 -1:255 29 0] [0x2 2 1 [28 0] [6 4]] (REQUEST)
r 1.117067085 _38_ RTR  --- 0 AODV 48 [0 ffffffff f 800] ------- [15:255 -1:255 29 0] [0x2 2 1 [28 0] [6 4]] (REQUEST)
r 1.117067101 _19_ RTR  --- 0 AODV 48 [0 ffffffff f 800] ------- [15:255 -1:255 29 0] [0x2 2 1 [28 0] [6 4]] (REQUEST)
r 1.117067109 _14_ RTR  --- 0 AODV 48 [0 ffffffff f 800] ------- [15:255 -1:255 29 0] [0x2 2 1 [28 0] [6 4]] (REQUEST)
r 1.117067110 _24_ RTR  --- 0 AODV 48 [0 ffffffff f 800] ------- [15:255 -1:255 29 0] [0x2 2 1 [28 0] [6 4]] (REQUEST)
r 1.117067132 _9_ RTR  --- 0 AODV 48 [0 ffffffff f 800] ------- [15:255 -1:255 29 0] [0x2 2 1 [28 0] [6 4]] (REQUEST)
r 1.117067133 _29_ RTR  --- 0 AODV 48 [0 ffffffff f 800] ------- [15:255 -1:255 29 0] [0x2 2 1 [28 0] [6 4]] (REQUEST)
r 1.117067170 _4_ RTR  --- 0 AODV 48 [0 ffffffff f 800] ------- [15:255 -1:255 29 0] [0x2 2 1 [28 0] [6 4]] (REQUEST)
r 1.117067171 _34_ RTR  --- 0 AODV 48 [0 ffffffff f 800] ------- [15:255 -1:255 29 0] [0x2 2 1 [28 0] [6 4]] (REQUEST)
r 1.117067221 _39_ RTR  --- 0 AODV 48 [0 ffffffff f 800] ------- [15:255 -1:255 29 0] [0x2 2 1 [28 0] [6 4]] (REQUEST)
s 1.117231658 _29_ RTR  --- 0 AODV 48 [0 ffffffff 6 800] ------- [29:255 -1:255 29 0] [0x2 2 1 [28 0] [6 4]] (REQUEST)
s 1.117430865 _39_ RTR  --- 0 AODV 48 [0 ffffffff 6 800] ------- [39:255 -1:255 29 0] [0x2 2 1 [28 0] [6 4]] (REQUEST)
s 1.117873868 _22_ RTR  --- 0 AODV 48 [0 ffffffff 6 800] ------- [22:255 -1:255 29 0] [0x2 2 1 [28 0] [6 4]] (REQUEST)
s 1.118235896 _3_ RTR  --- 0 AODV 48 [0 ffffffff 6 800] ------- [3:255 -1:255 29 0] [0x2 2 1 [28 0] [6 4]] (REQUEST)
s 1.118441128 _7_ RTR  --- 0 AODV 48 [0 ffffffff 6 800] ------- [7:255 -1:255 29 0] [0x2 2 1 [28 0] [6 4]] (REQUEST)
s 1.118646788 _16_ RTR  --- 0 AODV 48 [0 ffffffff 6 800] ------- [16:255 -1:255 29 0] [0x2 2 1 [28 0] [6 4]] (REQUEST)
s 1.118743575 _37_ RTR  --- 0 AODV 48 [0 ffffffff 6 800] ------- [37:255 -1:255 29 0] [0x2 2 1 [28 0] [6 4]] (REQUEST)
s 1.118901246 _11_ RTR  --- 0 AODV 48 [0 ffffffff 6 800] ------- [11:255 -1:255 29 0] [0x2 2 1 [28 0] [6 4]] (REQUEST)
s 1.118948026 _4_ RTR  --- 0 AODV 48 [0 ffffffff 6 800] ------- [4:255 -1:255 29 0] [0x2 2 1 [28 0] [6 4]] (REQUEST)
s 1.118990725 _31_ RTR  --- 0 AODV 48 [0 ffffffff 6 800] ------- [31:255 -1:255 29 0] [0x2 2 1 [28 0] [6 4]] (REQUEST)
r 1.119300553 _33_ RTR  --- 0 AODV 48 [0 ffffffff 26 800] ------- [38:255 -1:255 29 0] [0x2 2 1 [28 0] [6 4]] (REQUEST)
r 1.119300616 _37_ RTR  --- 0 AODV 48 [0 ffffffff 26 800] ------- [38:255 -1:255 29 0] [0x2 2 1 [28 0] [6 4]] (REQUEST)
r 1.119300616 _39_ RTR  --- 0 AODV 48 [0 ffffffff 26 800] ------- [38:255 -1:255 29 0] [0x2 2 1 [28 0] [6 4]] (REQUEST)
r 1.119300645 _34_ RTR  --- 0 AODV 48 [0 ffffffff 26 800] ------- [38:255 -1:255 29 0] [0x2 2 1 [28 0] [6 4]] (REQUEST)
r 1.119300645 _32_ RTR  --- 0 AODV 48 [0 ffffffff 26 800] ------- [38:255 -1:255 29 0] [0x2 2 1 [28 0] [6 4]] (REQUEST)
r 1.119300783 _36_ RTR  --- 0 AODV 48 [0 ffffffff 26 800] ------- [38:255 -1:255 29 0] [0x2 2 1 [28 0] [6 4]] (REQUEST)
s 1.119332780 _23_ RTR  --- 0 AODV 48 [0 ffffffff 6 800] ------- [23:255 -1:255 29 0] [0x2 2 1 [28 0] [6 4]] (REQUEST)
r 1.119370565 _8_ RTR  --- 0 AODV 48 [0 ffffffff d 800] ------- [13:255 -1:255 29 0] [0x2 2 1 [28 0] [6 4]] (REQUEST)
r 1.119370565 _18_ RTR  --- 0 AODV 48 [0 ffffffff d 800] ------- [13:255 -1:255 29 0] [0x2 2 1 [28 0] [6 4]] (REQUEST)
r 1.119370628 _12_ RTR  --- 0 AODV 48 [0 ffffffff d 800] ------- [13:255 -1:255 29 0] [0x2 2 1 [28 0] [6 4]] (REQUEST)
r 1.119370628 _14_ RTR  --- 0 AODV 48 [0 ffffffff d 800] ------- [13:255 -1:255 29 0] [0x2 2 1 [28 0] [6 4]] (REQUEST)
r 1.119370658 _9_ RTR  --- 0 AODV 48 [0 ffffffff d 800] ------- [13:255 -1:255 29 0] [0x2 2 1 [28 0] [6 4]] (REQUEST)
r 1.119370658 _7_ RTR  --- 0 AODV 48 [0 ffffffff d 800] ------- [13:255 -1:255 29 0] [0x2 2 1 [28 0] [6 4]] (REQUEST)
r 1.119370658 _17_ RTR  --- 0 AODV 48 [0 ffffffff d 800] ------- [13:255 -1:255 29 0] [0x2 2 1 [28 0] [6 4]] (REQUEST)
r 1.119370658 _19_ RTR  --- 0 AODV 48 [0 ffffffff d 800] ------- [13:255 -1:255 29 0] [0x2 2 1 [28 0] [6 4]] (REQUEST)
r 1.119370668 _3_ RTR  --- 0 AODV 48 [0 ffffffff d 800] ------- [13:255 -1:255 29 0] [0x2 2 1 [28 0] [6 4]] (REQUEST)
r 1.119370727 _4_ RTR  --- 0 AODV 48 [0 ffffffff d 800] ------- [13:255 -1:255 29 0] [0x2 2 1 [28 0] [6 4]] (REQUEST)
r 1.119370727 _2_ RTR  --- 0 AODV 48 [0 ffffffff d 800] ------- [13:255 -1:255 29 0] [0x2 2 1 [28 0] [6 4]] (REQUEST)
r 1.119370795 _11_ RTR  --- 0 AODV 48 [0 ffffffff d 800] ------- [13:255 -1:255 29 0] [0x2 2 1 [28 0] [6 4]] (REQUEST)
r 1.119370811 _6_ RTR  --- 0 AODV 48 [0 ffffffff d 800] ------- [13:255 -1:255 29 0] [0x2 2 1 [28 0] [6 4]] (REQUEST)
r 1.119370854 _1_ RTR  --- 0 AODV 48 [0 ffffffff d 800] ------- [13:255 -1:255 29 0] [0x2 2 1 [28 0] [6 4]] (REQUEST)
s 1.119383920 _30_ RTR  --- 0 AODV 48 [0 ffffffff 6 800] ------- [30:255 -1:255 29 0] [0x2 2 1 [28 0] [6 4]] (REQUEST)
s 1.119510839 _14_ RTR  --- 0 AODV 48 [0 ffffffff 6 800] ------- [14:255 -1:255 29 0] [0x2 2 1 [28 0] [6 4]] (REQUEST)
s 1.119652063 _36_ RTR  --- 0 AODV 48 [0 ffffffff 6 800] ------- [36:255 -1:255 29 0] [0x2 2 1 [28 0] [6 4]] (REQUEST)
r 1.121634423 _13_ RTR  --- 0 AODV 48 [0 ffffffff 12 800] ------- [18:255 -1:255 29 0] [0x2 2 1 [28 0] [6 4]] (REQUEST)
r 1.121634427 _23_ RTR  --- 0 AODV 48 [0 ffffffff 12 800] ------- [18:255 -1:255 29 0] [0x2 2 1 [28 0] [6 4]] (REQUEST)
r 1.121634487 _17_ RTR  --- 0 AODV 48 [0 ffffffff 12 800] ------- [18:255 -1:255 29 0] [0x2 2 1 [28 0] [6 4]] (REQUEST)
r 1.121634487 _19_ RTR  --- 0 AODV 48 [0 ffffffff 12 800] ------- [18:255 -1:255 29 0] [0x2 2 1 [28 0] [6 4]] (REQUEST)
r 1.121634516 _14_ RTR  --- 0 AODV 48 [0 ffffffff 12 800] ------- [18:255 -1:255 29 0] [0x2 2 1 [28 0] [6 4]] (REQUEST)
r 1.121634516 _12_ RTR  --- 0 AODV 48 [0 ffffffff 12 800] ------- [18:255 -1:255 29 0] [0x2 2 1 [28 0] [6 4]] (REQUEST)
r 1.121634518 _22_ RTR  --- 0 AODV 48 [0 ffffffff 12 800] ------- [18:255 -1:255 29 0] [0x2 2 1 [28 0] [6 4]] (REQUEST)
r 1.121634518 _24_ RTR  --- 0 AODV 48 [0 ffffffff 12 800] ------- [18:255 -1:255 29 0] [0x2 2 1 [28 0] [6 4]] (REQUEST)
r 1.121634527 _8_ RTR  --- 0 AODV 48 [0 ffffffff 12 800] ------- [18:255 -1:255 29 0] [0x2 2 1 [28 0] [6 4]] (REQUEST)
r 1.121634530 _28_ RTR  --- 0 AODV 48 [0 ffffffff 12 800] ------- [18:255 -1:255 29 0] [0x2 2 1 [28 0] [6 4]] (REQUEST)
r 1.121634586 _9_ RTR  --- 0 AODV 48 [0 ffffffff 12 800] ------- [18:255 -1:255 29 0] [0x2 2 1 [28 0] [6 4]] (REQUEST)
r 1.121634586 _7_ RTR  --- 0 AODV 48 [0 ffffffff 12 800] ------- [18:255 -1:255 29 0] [0x2 2 1 [28 0] [6 4]] (REQUEST)
r 1.121634588 _27_ RTR  --- 0 AODV 48 [0 ffffffff 12 800] ------- [18:255 -1:255 29 0] [0x2 2 1 [28 0] [6 4]] (REQUEST)
r 1.121634588 _29_ RTR  --- 0 AODV 48 [0 ffffffff 12 800] ------- [18:255 -1:255 29 0] [0x2 2 1 [28 0] [6 4]] (REQUEST)
r 1.121634630 _3_ RTR  --- 0 AODV 48 [0 ffffffff 12 800] ------- [18:255 -1:255 29 0] [0x2 2 1 [28 0] [6 4]] (REQUEST)
r 1.121634633 _33_ RTR  --- 0 AODV 48 [0 ffffffff 12 800] ------- [18:255 -1:255 29 0] [0x2 2 1 [28 0] [6 4]] (REQUEST)
r 1.121634653 _16_ RTR  --- 0 AODV 48 [0 ffffffff 12 800] ------- [18:255 -1:255 29 0] [0x2 2 1 [28 0] [6 4]] (REQUEST)
r 1.121634669 _11_ RTR  --- 0 AODV 48 [0 ffffffff 12 800] ------- [18:255 -1:255 29 0] [0x2 2 1 [28 0] [6 4]] (REQUEST)
r 1.121634670 _21_ RTR  --- 0 AODV 48 [0 ffffffff 12 800] ------- [18:255 -1:255 29 0] [0x2 2 1 [28 0] [6 4]] (REQUEST)
r 1.121634672 _4_ RTR  --- 0 AODV 48 [0 ffffffff 12 800] ------- [18:255 -1:255 29 0] [0x2 2 1 [28 0] [6 4]] (REQUEST)
r 1.121634672 _2_ RTR  --- 0 AODV 48 [0 ffffffff 12 800] ------- [18:255 -1:255 29 0] [0x2 2 1 [28 0] [6 4]] (REQUEST)
r 1.121634675 _32_ RTR  --- 0 AODV 48 [0 ffffffff 12 800] ------- [18:255 -1:255 29 0] [0x2 2 1 [28 0] [6 4]] (REQUEST)
r 1.121634675 _34_ RTR  --- 0 AODV 48 [0 ffffffff 12 800] ------- [18:255 -1:255 29 0] [0x2 2 1 [28 0] [6 4]] (REQUEST)
r 1.121634712 _6_ RTR  --- 0 AODV 48 [0 ffffffff 12 800] ------- [18:255 -1:255 29 0] [0x2 2 1 [28 0] [6 4]] (REQUEST)
r 1.121634714 _26_ RTR  --- 0 AODV 48 [0 ffffffff 12 800] ------- [18:255 -1:255 29 0] [0x2 2 1 [28 0] [6 4]] (REQUEST)
r 1.121634737 _38_ RTR  --- 0 AODV 48 [0 ffffffff 12 800] ------- [18:255 -1:255 29 0] [0x2 2 1 [28 0] [6 4]] (REQUEST)
r 1.121634769 _37_ RTR  --- 0 AODV 48 [0 ffffffff 12 800] ------- [18:255 -1:255 29 0] [0x2 2 1 [28 0] [6 4]] (REQUEST)
r 1.121634769 _39_ RTR  --- 0 AODV 48 [0 ffffffff 12 800] ------- [18:255 -1:255 29 0] [0x2 2 1 [28 0] [6 4]] (REQUEST)
r 1.121634775 _1_ RTR  --- 0 AODV 48 [0 ffffffff 12 800] ------- [18:255 -1:255 29 0] [0x2 2 1 [28 0] [6 4]] (REQUEST)
r 1.121634778 _31_ RTR  --- 0 AODV 48 [0 ffffffff 12 800] ------- [18:255 -1:255 29 0] [0x2 2 1 [28 0] [6 4]] (REQUEST)
r 1.121634820 _15_ RTR  --- 0 AODV 48 [0 ffffffff 12 800] ------- [18:255 -1:255 29 0] [0x2 2 1 [28 0] [6 4]] (REQUEST)
r 1.121634831 _10_ RTR  --- 0 AODV 48 [0 ffffffff 12 800] ------- [18:255 -1:255 29 0] [0x2 2 1 [28 0] [6 4]] (REQUEST)
r 1.121634831 _20_ RTR  --- 0 AODV 48 [0 ffffffff 12 800] ------- [18:255 -1:255 29 0] [0x2 2 1 [28 0] [6 4]] (REQUEST)
r 1.121634854 _36_ RTR  --- 0 AODV 48 [0 ffffffff 12 800] ------- [18:255 -1:255 29 0] [0x2 2 1 [28 0] [6 4]] (REQUEST)
r 1.121634861 _5_ RTR  --- 0 AODV 48 [0 ffffffff 12 800] ------- [18:255 -1:255 29 0] [0x2 2 1 [28 0] [6 4]] (REQUEST)
r 1.121634862 _25_ RTR  --- 0 AODV 48 [0 ffffffff 12 800] ------- [18:255 -1:255 29 0] [0x2 2 1 [28 0] [6 4]] (REQUEST)
r 1.121634908 _0_ RTR  --- 0 AODV 48 [0 ffffffff 12 800] ------- [18:255 -1:255 29 0] [0x2 2 1 [28 0] [6 4]] (REQUEST)
r 1.121634910 _30_ RTR  --- 0 AODV 48 [0 ffffffff 12 800] ------- [18:255 -1:255 29 0] [0x2 2 1 [28 0] [6 4]] (REQUEST)
r 1.121634971 _35_ RTR  --- 0 AODV 48 [0 ffffffff 12 800] ------- [18:255 -1:255 29 0] [0x2 2 1 [28 0] [6 4]] (REQUEST)
r 1.123945678 _32_ RTR  --- 0 AODV 48 [0 ffffffff 25 800] ------- [37:255 -1:255 29 0] [0x2 2 1 [28 0] [6 4]] (REQUEST)
r 1.123945741 _38_ RTR  --- 0 AODV 48 [0 ffffffff 25 800] ------- [37:255 -1:255 29 0] [0x2 2 1 [28 0] [6 4]] (REQUEST)
r 1.123945771 _33_ RTR  --- 0 AODV 48 [0 ffffffff 25 800] ------- [37:255 -1:255 29 0] [0x2 2 1 [28 0] [6 4]] (REQUEST)
r 1.123945840 _28_ RTR  --- 0 AODV 48 [0 ffffffff 25 800] ------- [37:255 -1:255 29 0] [0x2 2 1 [28 0] [6 4]] (REQUEST)
r 1.123945908 _39_ RTR  --- 0 AODV 48 [0 ffffffff 25 800] ------- [37:255 -1:255 29 0] [0x2 2 1 [28 0] [6 4]] (REQUEST)
r 1.123945924 _34_ RTR  --- 0 AODV 48 [0 ffffffff 25 800] ------- [37:255 -1:255 29 0] [0x2 2 1 [28 0] [6 4]] (REQUEST)
r 1.123945967 _29_ RTR  --- 0 AODV 48 [0 ffffffff 25 800] ------- [37:255 -1:255 29 0] [0x2 2 1 [28 0] [6 4]] (REQUEST)
r 1.123964181 _30_ RTR  --- 0 AODV 48 [0 ffffffff 23 800] ------- [35:255 -1:255 29 0] [0x2 2 1 [28 0] [6 4]] (REQUEST)
r 1.126210117 _22_ RTR  --- 0 AODV 48 [0 ffffffff 1b 800] ------- [27:255 -1:255 29 0] [0x2 2 1 [28 0] [6 4]] (REQUEST)
r 1.126210117 _32_ RTR  --- 0 AODV 48 [0 ffffffff 1b 800] ------- [27:255 -1:255 29 0] [0x2 2 1 [28 0] [6 4]] (REQUEST)
r 1.126210180 _26_ RTR  --- 0 AODV 48 [0 ffffffff 1b 800] ------- [27:255 -1:255 29 0] [0x2 2 1 [28 0] [6 4]] (REQUEST)
r 1.126210180 _28_ RTR  --- 0 AODV 48 [0 ffffffff 1b 800] ------- [27:255 -1:255 29 0] [0x2 2 1 [28 0] [6 4]] (REQUEST)
r 1.126210209 _23_ RTR  --- 0 AODV 48 [0 ffffffff 1b 800] ------- [27:255 -1:255 29 0] [0x2 2 1 [28 0] [6 4]] (REQUEST)
r 1.126210209 _31_ RTR  --- 0 AODV 48 [0 ffffffff 1b 800] ------- [27:255 -1:255 29 0] [0x2 2 1 [28 0] [6 4]] (REQUEST)
r 1.126210209 _33_ RTR  --- 0 AODV 48 [0 ffffffff 1b 800] ------- [27:255 -1:255 29 0] [0x2 2 1 [28 0] [6 4]] (REQUEST)
r 1.126210220 _37_ RTR  --- 0 AODV 48 [0 ffffffff 1b 800] ------- [27:255 -1:255 29 0] [0x2 2 1 [28 0] [6 4]] (REQUEST)
r 1.126210279 _36_ RTR  --- 0 AODV 48 [0 ffffffff 1b 800] ------- [27:255 -1:255 29 0] [0x2 2 1 [28 0] [6 4]] (REQUEST)
r 1.126210279 _38_ RTR  --- 0 AODV 48 [0 ffffffff 1b 800] ------- [27:255 -1:255 29 0] [0x2 2 1 [28 0] [6 4]] (REQUEST)
r 1.126210347 _29_ RTR  --- 0 AODV 48 [0 ffffffff 1b 800] ------- [27:255 -1:255 29 0] [0x2 2 1 [28 0] [6 4]] (REQUEST)
r 1.126210362 _34_ RTR  --- 0 AODV 48 [0 ffffffff 1b 800] ------- [27:255 -1:255 29 0] [0x2 2 1 [28 0] [6 4]] (REQUEST)
r 1.126210405 _39_ RTR  --- 0 AODV 48 [0 ffffffff 1b 800] ------- [27:255 -1:255 29 0] [0x2 2 1 [28 0] [6 4]] (REQUEST)
s 1.126405439 _2_ AGT  --- 1 tcp 40 [0 0 0 0] ------- [2:0 0:0 32 0] [0 0] 0 0
r 1.126405439 _2_ RTR  --- 1 tcp 40 [0 0 0 0] ------- [2:0 0:0 32 0] [0 0] 0 0
s 1.126405439 _2_ RTR  --- 0 AODV 48 [0 0 0 0] ------- [2:255 -1:255 30 0] [0x2 1 1 [0 0] [2 4]] (REQUEST)
s 1.127838335 _26_ AGT  --- 2 tcp 40 [0 0 0 0] ------- [26:0 3:0 32 0] [0 0] 0 0
r 1.127838335 _26_ RTR  --- 2 tcp 40 [0 0 0 0] ------- [26:0 3:0 32 0] [0 0] 0 0
s 1.127838335 _26_ RTR  --- 0 AODV 48 [0 0 0 0] ------- [26:255 -1:255 30 0] [0x2 1 1 [3 0] [26 4]] (REQUEST)
r 1.128815081 _6_ RTR  --- 0 AODV 48 [0 ffffffff 1 800] ------- [1:255 -1:255 29 0] [0x2 2 1 [28 0] [6 4]] (REQUEST)
r 1.128815144 _0_ RTR  --- 0 AODV 48 [0 ffffffff 1 800] ------- [1:255 -1:255 29 0] [0x2 2 1 [28 0] [6 4]] (REQUEST)
r 1.128815144 _2_ RTR  --- 0 AODV 48 [0 ffffffff 1 800] ------- [1:255 -1:255 29 0] [0x2 2 1 [28 0] [6 4]] (REQUEST)
r 1.128981632 _26_ RTR  --- 0 AODV 48 [0 ffffffff 15 800] ------- [21:255 -1:255 29 0] [0x2 2 1 [28 0] [6 4]] (REQUEST)
r 1.128981695 _20_ RTR  --- 0 AODV 48 [0 ffffffff 15 800] ------- [21:255 -1:255 29 0] [0x2 2 1 [28 0] [6 4]] (REQUEST)
r 1.128981695 _22_ RTR  --- 0 AODV 48 [0 ffffffff 15 800] ------- [21:255 -1:255 29 0] [0x2 2 1 [28 0] [6 4]] (REQUEST)
r 1.128981725 _25_ RTR  --- 0 AODV 48 [0 ffffffff 15 800] ------- [21:255 -1:255 29 0] [0x2 2 1 [28 0] [6 4]] (REQUEST)
r 1.128981725 _27_ RTR  --- 0 AODV 48 [0 ffffffff 15 800] ------- [21:255 -1:255 29 0] [0x2 2 1 [28 0] [6 4]] (REQUEST)
r 1.128981735 _31_ RTR  --- 0 AODV 48 [0 ffffffff 15 800] ------- [21:255 -1:255 29 0] [0x2 2 1 [28 0] [6 4]] (REQUEST)
r 1.128981794 _30_ RTR  --- 0 AODV 48 [0 ffffffff 15 800] ------- [21:255 -1:255 29 0] [0x2 2 1 [28 0] [6 4]] (REQUEST)
r 1.128981794 _32_ RTR  --- 0 AODV 48 [0 ffffffff 15 800] ------- [21:255 -1:255 29 0] [0x2 2 1 [28 0] [6 4]] (REQUEST)
r 1.128981839 _36_ RTR  --- 0 AODV 48 [0 ffffffff 15 800] ------- [21:255 -1:255 29 0] [0x2 2 1 [28 0] [6 4]] (REQUEST)
r 1.128981881 _35_ RTR  --- 0 AODV 48 [0 ffffffff 15 800] ------- [21:255 -1:255 29 0] [0x2 2 1 [28 0] [6 4]] (REQUEST)
r 1.128981881 _37_ RTR  --- 0 AODV 48 [0 ffffffff 15 800] ------- [21:255 -1:255 29 0] [0x2 2 1 [28 0] [6 4]] (REQUEST)
r 1.128981921 _33_ RTR  --- 0 AODV 48 [0 ffffffff 15 800] ------- [21:255 -1:255 29 0] [0x2 2 1 [28 0] [6 4]] (REQUEST)
r 1.133544943 _9_ RTR  --- 0 AODV 48 [0 ffffffff e 800] ------- [14:255 -1:255 29 0] [0x2 2 1 [28 0] [6 4]] (REQUEST)
r 1.133544943 _19_ RTR  --- 0 AODV 48 [0 ffffffff e 800] ------- [14:255 -1:255 29 0] [0x2 2 1 [28 0] [6 4]] (REQUEST)
r 1.133545006 _13_ RTR  --- 0 AODV 48 [0 ffffffff e 800] ------- [14:255 -1:255 29 0] [0x2 2 1 [28 0] [6 4]] (REQUEST)
r 1.133545035 _8_ RTR  --- 0 AODV 48 [0 ffffffff e 800] ------- [14:255 -1:255 29 0] [0x2 2 1 [28 0] [6 4]] (REQUEST)
r 1.133545046 _4_ RTR  --- 0 AODV 48 [0 ffffffff e 800] ------- [14:255 -1:255 29 0] [0x2 2 1 [28 0] [6 4]] (REQUEST)
r 1.133545049 _24_ RTR  --- 0 AODV 48 [0 ffffffff e 800] ------- [14:255 -1:255 29 0] [0x2 2 1 [28 0] [6 4]] (REQUEST)
r 1.133545105 _3_ RTR  --- 0 AODV 48 [0 ffffffff e 800] ------- [14:255 -1:255 29 0] [0x2 2 1 [28 0] [6 4]] (REQUEST)
r 1.133677757 _21_ RTR  --- 0 AODV 48 [0 ffffffff 1a 800] ------- [26:255 -1:255 30 0] [0x2 1 1 [3 0] [26 4]] (REQUEST)
r 1.133677757 _31_ RTR  --- 0 AODV 48 [0 ffffffff 1a 800] ------- [26:255 -1:255 30 0] [0x2 1 1 [3 0] [26 4]] (REQUEST)
r 1.133677820 _25_ RTR  --- 0 AODV 48 [0 ffffffff 1a 800] ------- [26:255 -1:255 30 0] [0x2 1 1 [3 0] [26 4]] (REQUEST)
r 1.133677820 _27_ RTR  --- 0 AODV 48 [0 ffffffff 1a 800] ------- [26:255 -1:255 30 0] [0x2 1 1 [3 0] [26 4]] (REQUEST)
r 1.133677849 _20_ RTR  --- 0 AODV 48 [0 ffffffff 1a 800] ------- [26:255 -1:255 30 0] [0x2 1 1 [3 0] [26 4]] (REQUEST)
r 1.133677849 _30_ RTR  --- 0 AODV 48 [0 ffffffff 1a 800] ------- [26:255 -1:255 30 0] [0x2 1 1 [3 0] [26 4]] (REQUEST)
r 1.133677849 _32_ RTR  --- 0 AODV 48 [0 ffffffff 1a 800] ------- [26:255 -1:255 30 0] [0x2 1 1 [3 0] [26 4]] (REQUEST)
r 1.133677860 _36_ RTR  --- 0 AODV 48 [0 ffffffff 1a 800] ------- [26:255 -1:255 30 0] [0x2 1 1 [3 0] [26 4]] (REQUEST)
r 1.133677863 _16_ RTR  --- 0 AODV 48 [0 ffffffff 1a 800] ------- [26:255 -1:255 30 0] [0x2 1 1 [3 0] [26 4]] (REQUEST)
r 1.133677919 _35_ RTR  --- 0 AODV 48 [0 ffffffff 1a 800] ------- [26:255 -1:255 30 0] [0x2 1 1 [3 0] [26 4]] (REQUEST)
r 1.133677919 _37_ RTR  --- 0 AODV 48 [0 ffffffff 1a 800] ------- [26:255 -1:255 30 0] [0x2 1 1 [3 0] [26 4]] (REQUEST)
r 1.133677921 _15_ RTR  --- 0 AODV 48 [0 ffffffff 1a 800] ------- [26:255 -1:255 30 0] [0x2 1 1 [3 0] [26 4]] (REQUEST)