s 1.106011134 _38_ AGT  --- 0 tcp 40 [0 0 0 0] ------- [38:0 34:1 32 0] [0 0] 0 0
r 1.106011134 _38_ RTR  --- 0 tcp 40 [0 0 0 0] ------- [38:0 34:1 32 0] [0 0] 0 0
s 1.106011134 _38_ RTR  --- 0 AODV 48 [0 0 0 0] ------- [38:255 -1:255 30 0] [0x2 1 1 [34 0] [38 4]] (REQUEST)
r 1.109933550 _33_ RTR  --- 0 AODV 48 [0 ffffffff 26 800] ------- [38:255 -1:255 30 0] [0x2 1 1 [34 0] [38 4]] (REQUEST)
r 1.109933800 _37_ RTR  --- 0 AODV 48 [0 ffffffff 26 800] ------- [38:255 -1:255 30 0] [0x2 1 1 [34 0] [38 4]] (REQUEST)
r 1.109933800 _39_ RTR  --- 0 AODV 48 [0 ffffffff 26 800] ------- [38:255 -1:255 30 0] [0x2 1 1 [34 0] [38 4]] (REQUEST)
r 1.109933920 _34_ RTR  --- 0 AODV 48 [0 ffffffff 26 800] ------- [38:255 -1:255 30 0] [0x2 1 1 [34 0] [38 4]] (REQUEST)
r 1.109933920 _32_ RTR  --- 0 AODV 48 [0 ffffffff 26 800] ------- [38:255 -1:255 30 0] [0x2 1 1 [34 0] [38 4]] (REQUEST)
s 1.109933920 _34_ RTR  --- 0 AODV 44 [0 0 0 0] ------- [34:255 38:255 30 38] [0x4 1 [34 4] 10.000000] (REPLY)
r 1.109933967 _28_ RTR  --- 0 AODV 48 [0 ffffffff 26 800] ------- [38:255 -1:255 30 0] [0x2 1 1 [34 0] [38 4]] (REQUEST)
s 1.111519104 _28_ RTR  --- 0 AODV 48 [0 ffffffff 26 800] ------- [28:255 -1:255 29 0] [0x2 2 1 [34 0] [38 4]] (REQUEST)
s 1.114781291 _33_ RTR  --- 0 AODV 48 [0 ffffffff 26 800] ------- [33:255 -1:255 29 0] [0x2 2 1 [34 0] [38 4]] (REQUEST)
s 1.116162699 _39_ RTR  --- 0 AODV 48 [0 ffffffff 26 800] ------- [39:255 -1:255 29 0] [0x2 2 1 [34 0] [38 4]] (REQUEST)
r 1.117743708 _28_ RTR  --- 0 AODV 48 [0 ffffffff 21 800] ------- [33:255 -1:255 29 0] [0x2 2 1 [34 0] [38 4]] (REQUEST)
r 1.117743708 _38_ RTR  --- 0 AODV 48 [0 ffffffff 21 800] ------- [33:255 -1:255 29 0] [0x2 2 1 [34 0] [38 4]] (REQUEST)
r 1.117743958 _32_ RTR  --- 0 AODV 48 [0 ffffffff 21 800] ------- [33:255 -1:255 29 0] [0x2 2 1 [34 0] [38 4]] (REQUEST)
r 1.117743958 _34_ RTR  --- 0 AODV 48 [0 ffffffff 21 800] ------- [33:255 -1:255 29 0] [0x2 2 1 [34 0] [38 4]] (REQUEST)
r 1.117744077 _29_ RTR  --- 0 AODV 48 [0 ffffffff 21 800] ------- [33:255 -1:255 29 0] [0x2 2 1 [34 0] [38 4]] (REQUEST)
r 1.117744077 _27_ RTR  --- 0 AODV 48 [0 ffffffff 21 800] ------- [33:255 -1:255 29 0] [0x2 2 1 [34 0] [38 4]] (REQUEST)
r 1.117744077 _37_ RTR  --- 0 AODV 48 [0 ffffffff 21 800] ------- [33:255 -1:255 29 0] [0x2 2 1 [34 0] [38 4]] (REQUEST)
r 1.117744077 _39_ RTR  --- 0 AODV 48 [0 ffffffff 21 800] ------- [33:255 -1:255 29 0] [0x2 2 1 [34 0] [38 4]] (REQUEST)
r 1.117744124 _23_ RTR  --- 0 AODV 48 [0 ffffffff 21 800] ------- [33:255 -1:255 29 0] [0x2 2 1 [34 0] [38 4]] (REQUEST)
s 1.118441748 _32_ RTR  --- 0 AODV 48 [0 ffffffff 26 800] ------- [32:255 -1:255 29 0] [0x2 2 1 [34 0] [38 4]] (REQUEST)
s 1.118901809 _37_ RTR  --- 0 AODV 48 [0 ffffffff 26 800] ------- [37:255 -1:255 29 0] [0x2 2 1 [34 0] [38 4]] (REQUEST)
r 1.121724164 _27_ RTR  --- 0 AODV 48 [0 ffffffff 20 800] ------- [32:255 -1:255 29 0] [0x2 2 1 [34 0] [38 4]] (REQUEST)
s 1.122078227 _23_ RTR  --- 0 AODV 48 [0 ffffffff 21 800] ------- [23:255 -1:255 28 0] [0x2 3 1 [34 0] [38 4]] (REQUEST)
s 1.124114872 _27_ RTR  --- 0 AODV 48 [0 ffffffff 21 800] ------- [27:255 -1:255 28 0] [0x2 3 1 [34 0] [38 4]] (REQUEST)
s 1.125684457 _29_ RTR  --- 0 AODV 48 [0 ffffffff 21 800] ------- [29:255 -1:255 28 0] [0x2 3 1 [34 0] [38 4]] (REQUEST)
s 1.126405439 _13_ AGT  --- 1 tcp 40 [0 0 0 0] ------- [13:0 39:0 32 0] [0 0] 0 0
r 1.126405439 _13_ RTR  --- 1 tcp 40 [0 0 0 0] ------- [13:0 39:0 32 0] [0 0] 0 0
s 1.126405439 _13_ RTR  --- 0 AODV 48 [0 0 0 0] ------- [13:255 -1:255 30 0] [0x2 1 1 [39 0] [13 4]] (REQUEST)
s 1.127838335 _4_ AGT  --- 2 tcp 40 [0 0 0 0] ------- [4:0 33:0 32 0] [0 0] 0 0
r 1.127838335 _4_ RTR  --- 2 tcp 40 [0 0 0 0] ------- [4:0 33:0 32 0] [0 0] 0 0
s 1.127838335 _4_ RTR  --- 0 AODV 48 [0 0 0 0] ------- [4:255 -1:255 30 0] [0x2 1 1 [33 0] [4 4]] (REQUEST)
r 1.127985521 _23_ RTR  --- 0 AODV 48 [0 ffffffff 1c 800] ------- [28:255 -1:255 29 0] [0x2 2 1 [34 0] [38 4]] (REQUEST)
r 1.127985521 _33_ RTR  --- 0 AODV 48 [0 ffffffff 1c 800] ------- [28:255 -1:255 29 0] [0x2 2 1 [34 0] [38 4]] (REQUEST)
r 1.127985771 _29_ RTR  --- 0 AODV 48 [0 ffffffff 1c 800] ------- [28:255 -1:255 29 0] [0x2 2 1 [34 0] [38 4]] (REQUEST)
r 1.128037288 _22_ RTR  --- 0 AODV 48 [0 ffffffff 1b 800] ------- [27:255 -1:255 28 0] [0x2 3 1 [34 0] [38 4]] (REQUEST)
r 1.128037288 _32_ RTR  --- 0 AODV 48 [0 ffffffff 1b 800] ------- [27:255 -1:255 28 0] [0x2 3 1 [34 0] [38 4]] (REQUEST)
r 1.128037538 _26_ RTR  --- 0 AODV 48 [0 ffffffff 1b 800] ------- [27:255 -1:255 28 0] [0x2 3 1 [34 0] [38 4]] (REQUEST)
r 1.130246874 _24_ RTR  --- 0 AODV 48 [0 ffffffff 1d 800] ------- [29:255 -1:255 28 0] [0x2 3 1 [34 0] [38 4]] (REQUEST)
r 1.130246874 _34_ RTR  --- 0 AODV 48 [0 ffffffff 1d 800] ------- [29:255 -1:255 28 0] [0x2 3 1 [34 0] [38 4]] (REQUEST)
r 1.130247124 _28_ RTR  --- 0 AODV 48 [0 ffffffff 1d 800] ------- [29:255 -1:255 28 0] [0x2 3 1 [34 0] [38 4]] (REQUEST)
r 1.130247243 _23_ RTR  --- 0 AODV 48 [0 ffffffff 1d 800] ------- [29:255 -1:255 28 0] [0x2 3 1 [34 0] [38 4]] (REQUEST)
r 1.130247243 _33_ RTR  --- 0 AODV 48 [0 ffffffff 1d 800] ------- [29:255 -1:255 28 0] [0x2 3 1 [34 0] [38 4]] (REQUEST)
r 1.130247290 _39_ RTR  --- 0 AODV 48 [0 ffffffff 1d 800] ------- [29:255 -1:255 28 0] [0x2 3 1 [34 0] [38 4]] (REQUEST)
r 1.131760751 _9_ RTR  --- 0 AODV 48 [0 ffffffff 4 800] ------- [4:255 -1:255 30 0] [0x2 1 1 [33 0] [4 4]] (REQUEST)
r 1.131761001 _3_ RTR  --- 0 AODV 48 [0 ffffffff 4 800] ------- [4:255 -1:255 30 0] [0x2 1 1 [33 0] [4 4]] (REQUEST)
r 1.131761121 _8_ RTR  --- 0 AODV 48 [0 ffffffff 4 800] ------- [4:255 -1:255 30 0] [0x2 1 1 [33 0] [4 4]] (REQUEST)
s 1.132305699 _24_ RTR  --- 0 AODV 48 [0 ffffffff 1d 800] ------- [24:255 -1:255 27 0] [0x2 4 1 [34 0] [38 4]] (REQUEST)
r 1.133141116 _34_ RTR  --- 0 AODV 48 [0 ffffffff 27 800] ------- [39:255 -1:255 29 0] [0x2 2 1 [34 0] [38 4]] (REQUEST)
r 1.133141366 _38_ RTR  --- 0 AODV 48 [0 ffffffff 27 800] ------- [39:255 -1:255 29 0] [0x2 2 1 [34 0] [38 4]] (REQUEST)
r 1.133141485 _33_ RTR  --- 0 AODV 48 [0 ffffffff 27 800] ------- [39:255 -1:255 29 0] [0x2 2 1 [34 0] [38 4]] (REQUEST)
r 1.133141532 _29_ RTR  --- 0 AODV 48 [0 ffffffff 27 800] ------- [39:255 -1:255 29 0] [0x2 2 1 [34 0] [38 4]] (REQUEST)
s 1.133217587 _22_ RTR  --- 0 AODV 48 [0 ffffffff 1b 800] ------- [22:255 -1:255 27 0] [0x2 4 1 [34 0] [38 4]] (REQUEST)
s 1.133379680 _8_ RTR  --- 0 AODV 48 [0 ffffffff 4 800] ------- [8:255 -1:255 29 0] [0x2 2 1 [33 0] [4 4]] (REQUEST)
r 1.136548115 _19_ RTR  --- 0 AODV 48 [0 ffffffff 18 800] ------- [24:255 -1:255 27 0] [0x2 4 1 [34 0] [38 4]] (REQUEST)
r 1.136663856 _8_ RTR  --- 0 AODV 48 [0 ffffffff d 800] ------- [13:255 -1:255 30 0] [0x2 1 1 [39 0] [13 4]] (REQUEST)
r 1.136663856 _18_ RTR  --- 0 AODV 48 [0 ffffffff d 800] ------- [13:255 -1:255 30 0] [0x2 1 1 [39 0] [13 4]] (REQUEST)
r 1.136664106 _12_ RTR  --- 0 AODV 48 [0 ffffffff d 800] ------- [13:255 -1:255 30 0] [0x2 1 1 [39 0] [13 4]] (REQUEST)
r 1.136664225 _7_ RTR  --- 0 AODV 48 [0 ffffffff d 800] ------- [13:255 -1:255 30 0] [0x2 1 1 [39 0] [13 4]] (REQUEST)
r 1.136664273 _3_ RTR  --- 0 AODV 48 [0 ffffffff d 800] ------- [13:255 -1:255 30 0] [0x2 1 1 [39 0] [13 4]] (REQUEST)
s 1.136847334 _26_ RTR  --- 0 AODV 48 [0 ffffffff 1b 800] ------- [26:255 -1:255 27 0] [0x2 4 1 [34 0] [38 4]] (REQUEST)
s 1.137079586 _18_ RTR  --- 0 AODV 48 [0 ffffffff d 800] ------- [18:255 -1:255 29 0] [0x2 2 1 [39 0] [13 4]] (REQUEST)
r 1.137144278 _38_ RTR  --- 0 AODV 44 [0 26 22 800] ------- [34:255 38:255 30 38] [0x4 1 [34 4] 10.000000] (REPLY)
s 1.137144278 _38_ RTR  --- 0 tcp 40 [0 0 0 0] ------- [38:0 34:1 30 34] [0 0] 0 0
s 1.137203433 _3_ RTR  --- 0 AODV 48 [0 ffffffff d 800] ------- [3:255 -1:255 29 0] [0x2 2 1 [39 0] [13 4]] (REQUEST)
s 1.137438079 _12_ RTR  --- 0 AODV 48 [0 ffffffff d 800] ------- [12:255 -1:255 29 0] [0x2 2 1 [39 0] [13 4]] (REQUEST)
s 1.137858383 _7_ RTR  --- 0 AODV 48 [0 ffffffff d 800] ------- [7:255 -1:255 29 0] [0x2 2 1 [39 0] [13 4]] (REQUEST)
s 1.138212610 _19_ RTR  --- 0 AODV 48 [0 ffffffff 18 800] ------- [19:255 -1:255 26 0] [0x2 5 1 [34 0] [38 4]] (REQUEST)
s 1.138333566 _3_ RTR  --- 0 AODV 48 [0 ffffffff 4 800] ------- [3:255 -1:255 29 0] [0x2 2 1 [33 0] [4 4]] (REQUEST)
s 1.138514527 _9_ RTR  --- 0 AODV 48 [0 ffffffff 4 800] ------- [9:255 -1:255 29 0] [0x2 2 1 [33 0] [4 4]] (REQUEST)
s 1.138592898 _8_ RTR  --- 0 AODV 48 [0 ffffffff d 800] ------- [8:255 -1:255 29 0] [0x2 2 1 [39 0] [13 4]] (REQUEST)
r 1.139828003 _17_ RTR  --- 0 AODV 48 [0 ffffffff 16 800] ------- [22:255 -1:255 27 0] [0x2 4 1 [34 0] [38 4]] (REQUEST)
r 1.139828003 _27_ RTR  --- 0 AODV 48 [0 ffffffff 16 800] ------- [22:255 -1:255 27 0] [0x2 4 1 [34 0] [38 4]] (REQUEST)
r 1.139828253 _21_ RTR  --- 0 AODV 48 [0 ffffffff 16 800] ------- [22:255 -1:255 27 0] [0x2 4 1 [34 0] [38 4]] (REQUEST)
r 1.139828253 _23_ RTR  --- 0 AODV 48 [0 ffffffff 16 800] ------- [22:255 -1:255 27 0] [0x2 4 1 [34 0] [38 4]] (REQUEST)
r 1.139828373 _18_ RTR  --- 0 AODV 48 [0 ffffffff 16 800] ------- [22:255 -1:255 27 0] [0x2 4 1 [34 0] [38 4]] (REQUEST)
r 1.139828373 _16_ RTR  --- 0 AODV 48 [0 ffffffff 16 800] ------- [22:255 -1:255 27 0] [0x2 4 1 [34 0] [38 4]] (REQUEST)
r 1.139828373 _26_ RTR  --- 0 AODV 48 [0 ffffffff 16 800] ------- [22:255 -1:255 27 0] [0x2 4 1 [34 0] [38 4]] (REQUEST)
r 1.139828373 _28_ RTR  --- 0 AODV 48 [0 ffffffff 16 800] ------- [22:255 -1:255 27 0] [0x2 4 1 [34 0] [38 4]] (REQUEST)
r 1.139828420 _12_ RTR  --- 0 AODV 48 [0 ffffffff 16 800] ------- [22:255 -1:255 27 0] [0x2 4 1 [34 0] [38 4]] (REQUEST)
r 1.139828420 _32_ RTR  --- 0 AODV 48 [0 ffffffff 16 800] ------- [22:255 -1:255 27 0] [0x2 4 1 [34 0] [38 4]] (REQUEST)
s 1.139863285 _17_ RTR  --- 0 AODV 48 [0 ffffffff 16 800] ------- [17:255 -1:255 26 0] [0x2 5 1 [34 0] [38 4]] (REQUEST)
s 1.140589095 _18_ RTR  --- 0 AODV 48 [0 ffffffff 16 800] ------- [18:255 -1:255 26 0] [0x2 5 1 [34 0] [38 4]] (REQUEST)
s 1.141942272 _16_ RTR  --- 0 AODV 48 [0 ffffffff 16 800] ------- [16:255 -1:255 26 0] [0x2 5 1 [34 0] [38 4]] (REQUEST)
r 1.142166097 _3_ RTR  --- 0 AODV 48 [0 ffffffff 8 800] ------- [8:255 -1:255 29 0] [0x2 2 1 [33 0] [4 4]] (REQUEST)
r 1.142166097 _13_ RTR  --- 0 AODV 48 [0 ffffffff 8 800] ------- [8:255 -1:255 29 0] [0x2 2 1 [33 0] [4 4]] (REQUEST)
r 1.142166347 _7_ RTR  --- 0 AODV 48 [0 ffffffff 8 800] ------- [8:255 -1:255 29 0] [0x2 2 1 [33 0] [4 4]] (REQUEST)
r 1.142166347 _9_ RTR  --- 0 AODV 48 [0 ffffffff 8 800] ------- [8:255 -1:255 29 0] [0x2 2 1 [33 0] [4 4]] (REQUEST)
r 1.142166466 _4_ RTR  --- 0 AODV 48 [0 ffffffff 8 800] ------- [8:255 -1:255 29 0] [0x2 2 1 [33 0] [4 4]] (REQUEST)
r 1.142166466 _2_ RTR  --- 0 AODV 48 [0 ffffffff 8 800] ------- [8:255 -1:255 29 0] [0x2 2 1 [33 0] [4 4]] (REQUEST)
r 1.142166466 _12_ RTR  --- 0 AODV 48 [0 ffffffff 8 800] ------- [8:255 -1:255 29 0] [0x2 2 1 [33 0] [4 4]] (REQUEST)
r 1.142166466 _14_ RTR  --- 0 AODV 48 [0 ffffffff 8 800] ------- [8:255 -1:255 29 0] [0x2 2 1 [33 0] [4 4]] (REQUEST)
r 1.142166513 _18_ RTR  --- 0 AODV 48 [0 ffffffff 8 800] ------- [8:255 -1:255 29 0] [0x2 2 1 [33 0] [4 4]] (REQUEST)
r 1.142497751 _21_ RTR  --- 0 AODV 48 [0 ffffffff 1a 800] ------- [26:255 -1:255 27 0] [0x2 4 1 [34 0] [38 4]] (REQUEST)
r 1.142497751 _31_ RTR  --- 0 AODV 48 [0 ffffffff 1a 800] ------- [26:255 -1:255 27 0] [0x2 4 1 [34 0] [38 4]] (REQUEST)
r 1.142498001 _25_ RTR  --- 0 AODV 48 [0 ffffffff 1a 800] ------- [26:255 -1:255 27 0] [0x2 4 1 [34 0] [38 4]] (REQUEST)
r 1.142498001 _27_ RTR  --- 0 AODV 48 [0 ffffffff 1a 800] ------- [26:255 -1:255 27 0] [0x2 4 1 [34 0] [38 4]] (REQUEST)
r 1.142498120 _22_ RTR  --- 0 AODV 48 [0 ffffffff 1a 800] ------- [26:255 -1:255 27 0] [0x2 4 1 [34 0] [38 4]] (REQUEST)
r 1.142498120 _20_ RTR  --- 0 AODV 48 [0 ffffffff 1a 800] ------- [26:255 -1:255 27 0] [0x2 4 1 [34 0] [38 4]] (REQUEST)
r 1.142498120 _30_ RTR  --- 0 AODV 48 [0 ffffffff 1a 800] ------- [26:255 -1:255 27 0] [0x2 4 1 [34 0] [38 4]] (REQUEST)
r 1.142498120 _32_ RTR  --- 0 AODV 48 [0 ffffffff 1a 800] ------- [26:255 -1:255 27 0] [0x2 4 1 [34 0] [38 4]] (REQUEST)
r 1.142498167 _16_ RTR  --- 0 AODV 48 [0 ffffffff 1a 800] ------- [26:255 -1:255 27 0] [0x2 4 1 [34 0] [38 4]] (REQUEST)
r 1.142498167 _36_ RTR  --- 0 AODV 48 [0 ffffffff 1a 800] ------- [26:255 -1:255 27 0] [0x2 4 1 [34 0] [38 4]] (REQUEST)
s 1.142564622 _2_ RTR  --- 0 AODV 48 [0 ffffffff 8 800] ------- [2:255 -1:255 28 0] [0x2 3 1 [33 0] [4 4]] (REQUEST)
s 1.145262219 _20_ RTR  --- 0 AODV 48 [0 ffffffff 1a 800] ------- [20:255 -1:255 26 0] [0x2 5 1 [34 0] [38 4]] (REQUEST)
r 1.145271027 _14_ RTR  --- 0 AODV 48 [0 ffffffff 13 800] ------- [19:255 -1:255 26 0] [0x2 5 1 [34 0] [38 4]] (REQUEST)
r 1.145271027 _24_ RTR  --- 0 AODV 48 [0 ffffffff 13 800] ------- [19:255 -1:255 26 0] [0x2 5 1 [34 0] [38 4]] (REQUEST)
r 1.145271277 _18_ RTR  --- 0 AODV 48 [0 ffffffff 13 800] ------- [19:255 -1:255 26 0] [0x2 5 1 [34 0] [38 4]] (REQUEST)
r 1.145271443 _9_ RTR  --- 0 AODV 48 [0 ffffffff 13 800] ------- [19:255 -1:255 26 0] [0x2 5 1 [34 0] [38 4]] (REQUEST)
s 1.145698489 _13_ RTR  --- 0 AODV 48 [0 ffffffff 8 800] ------- [13:255 -1:255 28 0] [0x2 3 1 [33 0] [4 4]] (REQUEST)
s 1.145824594 _14_ RTR  --- 0 AODV 48 [0 ffffffff 13 800] ------- [14:255 -1:255 25 0] [0x2 6 1 [34 0] [38 4]] (REQUEST)
s 1.146050854 _30_ RTR  --- 0 AODV 48 [0 ffffffff 1a 800] ------- [30:255 -1:255 26 0] [0x2 5 1 [34 0] [38 4]] (REQUEST)
r 1.146184689 _11_ RTR  --- 0 AODV 48 [0 ffffffff 10 800] ------- [16:255 -1:255 26 0] [0x2 5 1 [34 0] [38 4]] (REQUEST)
r 1.146184689 _21_ RTR  --- 0 AODV 48 [0 ffffffff 10 800] ------- [16:255 -1:255 26 0] [0x2 5 1 [34 0] [38 4]] (REQUEST)
r 1.146184939 _15_ RTR  --- 0 AODV 48 [0 ffffffff 10 800] ------- [16:255 -1:255 26 0] [0x2 5 1 [34 0] [38 4]] (REQUEST)
r 1.146184939 _17_ RTR  --- 0 AODV 48 [0 ffffffff 10 800] ------- [16:255 -1:255 26 0] [0x2 5 1 [34 0] [38 4]] (REQUEST)
r 1.146185058 _10_ RTR  --- 0 AODV 48 [0 ffffffff 10 800] ------- [16:255 -1:255 26 0] [0x2 5 1 [34 0] [38 4]] (REQUEST)
r 1.146185058 _20_ RTR  --- 0 AODV 48 [0 ffffffff 10 800] ------- [16:255 -1:255 26 0] [0x2 5 1 [34 0] [38 4]] (REQUEST)
r 1.146185105 _6_ RTR  --- 0 AODV 48 [0 ffffffff 10 800] ------- [16:255 -1:255 26 0] [0x2 5 1 [34 0] [38 4]] (REQUEST)
r 1.146185105 _26_ RTR  --- 0 AODV 48 [0 ffffffff 10 800] ------- [16:255 -1:255 26 0] [0x2 5 1 [34 0] [38 4]] (REQUEST)
s 1.146411306 _25_ RTR  --- 0 AODV 48 [0 ffffffff 1a 800] ------- [25:255 -1:255 26 0] [0x2 5 1 [34 0] [38 4]] (REQUEST)
s 1.146492770 _14_ RTR  --- 0 AODV 48 [0 ffffffff 8 800] ------- [14:255 -1:255 28 0] [0x2 3 1 [33 0] [4 4]] (REQUEST)
s 1.146941951 _7_ RTR  --- 0 AODV 48 [0 ffffffff 8 800] ------- [7:255 -1:255 28 0] [0x2 3 1 [33 0] [4 4]] (REQUEST)
s 1.147217567 _18_ RTR  --- 0 AODV 48 [0 ffffffff 8 800] ------- [18:255 -1:255 28 0] [0x2 3 1 [33 0] [4 4]] (REQUEST)
s 1.147764560 _21_ RTR  --- 0 AODV 48 [0 ffffffff 16 800] ------- [21:255 -1:255 26 0] [0x2 5 1 [34 0] [38 4]] (REQUEST)
r 1.148004943 _4_ RTR  --- 0 AODV 48 [0 ffffffff 9 800] ------- [9:255 -1:255 29 0] [0x2 2 1 [33 0] [4 4]] (REQUEST)
r 1.148004943 _14_ RTR  --- 0 AODV 48 [0 ffffffff 9 800] ------- [9:255 -1:255 29 0] [0x2 2 1 [33 0] [4 4]] (REQUEST)
r 1.148005193 _8_ RTR  --- 0 AODV 48 [0 ffffffff 9 800] ------- [9:255 -1:255 29 0] [0x2 2 1 [33 0] [4 4]] (REQUEST)
r 1.148005313 _3_ RTR  --- 0 AODV 48 [0 ffffffff 9 800] ------- [9:255 -1:255 29 0] [0x2 2 1 [33 0] [4 4]] (REQUEST)
s 1.148211377 _12_ RTR  --- 0 AODV 48 [0 ffffffff 16 800] ------- [12:255 -1:255 26 0] [0x2 5 1 [34 0] [38 4]] (REQUEST)
r 1.148331064 _34_ AGT  --- 0 tcp 40 [0 22 26 800] ------- [38:0 34:1 30 34] [0 0] 1 0
s 1.148331064 _34_ AGT  --- 3 ack 40 [0 0 0 0] ------- [34:1 38:0 32 0] [0 0] 0 0
r 1.148331064 _34_ RTR  --- 3 ack 40 [0 0 0 0] ------- [34:1 38:0 32 0] [0 0] 0 0
s 1.148331064 _34_ RTR  --- 3 ack 40 [0 0 0 0] ------- [34:1 38:0 30 38] [0 0] 0 0
s 1.148922851 _31_ RTR  --- 0 AODV 48 [0 ffffffff 1a 800] ------- [31:255 -1:255 26 0] [0x2 5 1 [34 0] [38 4]] (REQUEST)
r 1.149184635 _15_ RTR  --- 0 AODV 48 [0 ffffffff 14 800] ------- [20:255 -1:255 26 0] [0x2 5 1 [34 0] [38 4]] (REQUEST)
r 1.149184635 _25_ RTR  --- 0 AODV 48 [0 ffffffff 14 800] ------- [20:255 -1:255 26 0] [0x2 5 1 [34 0] [38 4]] (REQUEST)
r 1.149184885 _21_ RTR  --- 0 AODV 48 [0 ffffffff 14 800] ------- [20:255 -1:255 26 0] [0x2 5 1 [34 0] [38 4]] (REQUEST)
r 1.149185005 _16_ RTR  --- 0 AODV 48 [0 ffffffff 14 800] ------- [20:255 -1:255 26 0] [0x2 5 1 [34 0] [38 4]] (REQUEST)
r 1.149185005 _26_ RTR  --- 0 AODV 48 [0 ffffffff 14 800] ------- [20:255 -1:255 26 0] [0x2 5 1 [34 0] [38 4]] (REQUEST)
r 1.149185052 _10_ RTR  --- 0 AODV 48 [0 ffffffff 14 800] ------- [20:255 -1:255 26 0] [0x2 5 1 [34 0] [38 4]] (REQUEST)
r 1.149185052 _30_ RTR  --- 0 AODV 48 [0 ffffffff 14 800] ------- [20:255 -1:255 26 0] [0x2 5 1 [34 0] [38 4]] (REQUEST)
s 1.150435362 _9_ RTR  --- 0 AODV 48 [0 ffffffff 13 800] ------- [9:255 -1:255 25 0] [0x2 6 1 [34 0] [38 4]] (REQUEST)
r 1.150455038 _7_ RTR  --- 0 AODV 48 [0 ffffffff 2 800] ------- [2:255 -1:255 28 0] [0x2 3 1 [33 0] [4 4]] (REQUEST)
r 1.150455288 _1_ RTR  --- 0 AODV 48 [0 ffffffff 2 800] ------- [2:255 -1:255 28 0] [0x2 3 1 [33 0] [4 4]] (REQUEST)
r 1.150455288 _3_ RTR  --- 0 AODV 48 [0 ffffffff 2 800] ------- [2:255 -1:255 28 0] [0x2 3 1 [33 0] [4 4]] (REQUEST)
r 1.150455408 _6_ RTR  --- 0 AODV 48 [0 ffffffff 2 800] ------- [2:255 -1:255 28 0] [0x2 3 1 [33 0] [4 4]] (REQUEST)
r 1.150455408 _8_ RTR  --- 0 AODV 48 [0 ffffffff 2 800] ------- [2:255 -1:255 28 0] [0x2 3 1 [33 0] [4 4]] (REQUEST)
r 1.150455455 _12_ RTR  --- 0 AODV 48 [0 ffffffff 2 800] ------- [2:255 -1:255 28 0] [0x2 3 1 [33 0] [4 4]] (REQUEST)
s 1.150797819 _10_ RTR  --- 0 AODV 48 [0 ffffffff 10 800] ------- [10:255 -1:255 25 0] [0x2 6 1 [34 0] [38 4]] (REQUEST)
s 1.151386119 _6_ RTR  --- 0 AODV 48 [0 ffffffff 10 800] ------- [6:255 -1:255 25 0] [0x2 6 1 [34 0] [38 4]] (REQUEST)
r 1.151613722 _20_ RTR  --- 0 AODV 48 [0 ffffffff 19 800] ------- [25:255 -1:255 26 0] [0x2 5 1 [34 0] [38 4]] (REQUEST)
r 1.151613722 _30_ RTR  --- 0 AODV 48 [0 ffffffff 19 800] ------- [25:255 -1:255 26 0] [0x2 5 1 [34 0] [38 4]] (REQUEST)
r 1.151613972 _26_ RTR  --- 0 AODV 48 [0 ffffffff 19 800] ------- [25:255 -1:255 26 0] [0x2 5 1 [34 0] [38 4]] (REQUEST)
r 1.151614092 _21_ RTR  --- 0 AODV 48 [0 ffffffff 19 800] ------- [25:255 -1:255 26 0] [0x2 5 1 [34 0] [38 4]] (REQUEST)
r 1.151614092 _31_ RTR  --- 0 AODV 48 [0 ffffffff 19 800] ------- [25:255 -1:255 26 0] [0x2 5 1 [34 0] [38 4]] (REQUEST)
r 1.151614139 _15_ RTR  --- 0 AODV 48 [0 ffffffff 19 800] ------- [25:255 -1:255 26 0] [0x2 5 1 [34 0] [38 4]] (REQUEST)
r 1.151614139 _35_ RTR  --- 0 AODV 48 [0 ffffffff 19 800] ------- [25:255 -1:255 26 0] [0x2 5 1 [34 0] [38 4]] (REQUEST)
s 1.151981176 _36_ RTR  --- 0 AODV 48 [0 ffffffff 1a 800] ------- [36:255 -1:255 26 0] [0x2 5 1 [34 0] [38 4]] (REQUEST)
s 1.152039032 _12_ RTR  --- 0 AODV 48 [0 ffffffff 8 800] ------- [12:255 -1:255 28 0] [0x2 3 1 [33 0] [4 4]] (REQUEST)
s 1.153196015 _15_ RTR  --- 0 AODV 48 [0 ffffffff 10 800] ------- [15:255 -1:255 25 0] [0x2 6 1 [34 0] [38 4]] (REQUEST)
r 1.153541850 _8_ RTR  --- 0 AODV 48 [0 ffffffff 3 800] ------- [3:255 -1:255 29 0] [0x2 2 1 [39 0] [13 4]] (REQUEST)
r 1.153542100 _2_ RTR  --- 0 AODV 48 [0 ffffffff 3 800] ------- [3:255 -1:255 29 0] [0x2 2 1 [39 0] [13 4]] (REQUEST)
r 1.153542100 _4_ RTR  --- 0 AODV 48 [0 ffffffff 3 800] ------- [3:255 -1:255 29 0] [0x2 2 1 [39 0] [13 4]] (REQUEST)
r 1.153542220 _7_ RTR  --- 0 AODV 48 [0 ffffffff 3 800] ------- [3:255 -1:255 29 0] [0x2 2 1 [39 0] [13 4]] (REQUEST)
r 1.153542220 _9_ RTR  --- 0 AODV 48 [0 ffffffff 3 800] ------- [3:255 -1:255 29 0] [0x2 2 1 [39 0] [13 4]] (REQUEST)
r 1.153542267 _13_ RTR  --- 0 AODV 48 [0 ffffffff 3 800] ------- [3:255 -1:255 29 0] [0x2 2 1 [39 0] [13 4]] (REQUEST)
r 1.154125267 _26_ RTR  --- 0 AODV 48 [0 ffffffff 1f 800] ------- [31:255 -1:255 26 0] [0x2 5 1 [34 0] [38 4]] (REQUEST)
r 1.154125267 _36_ RTR  --- 0 AODV 48 [0 ffffffff 1f 800] ------- [31:255 -1:255 26 0] [0x2 5 1 [34 0] [38 4]] (REQUEST)
r 1.154125517 _30_ RTR  --- 0 AODV 48 [0 ffffffff 1f 800] ------- [31:255 -1:255 26 0] [0x2 5 1 [34 0] [38 4]] (REQUEST)
r 1.154125517 _32_ RTR  --- 0 AODV 48 [0 ffffffff 1f 800] ------- [31:255 -1:255 26 0] [0x2 5 1 [34 0] [38 4]] (REQUEST)
r 1.154125637 _25_ RTR  --- 0 AODV 48 [0 ffffffff 1f 800] ------- [31:255 -1:255 26 0] [0x2 5 1 [34 0] [38 4]] (REQUEST)
r 1.154125637 _35_ RTR  --- 0 AODV 48 [0 ffffffff 1f 800] ------- [31:255 -1:255 26 0] [0x2 5 1 [34 0] [38 4]] (REQUEST)
r 1.154125684 _21_ RTR  --- 0 AODV 48 [0 ffffffff 1f 800] ------- [31:255 -1:255 26 0] [0x2 5 1 [34 0] [38 4]] (REQUEST)
s 1.154597660 _11_ RTR  --- 0 AODV 48 [0 ffffffff 10 800] ------- [11:255 -1:255 25 0] [0x2 6 1 [34 0] [38 4]] (REQUEST)
s 1.154934997 _6_ RTR  --- 0 AODV 48 [0 ffffffff 2 800] ------- [6:255 -1:255 27 0] [0x2 4 1 [33 0] [4 4]] (REQUEST)
r 1.156478432 _10_ RTR  --- 0 AODV 48 [0 ffffffff f 800] ------- [15:255 -1:255 25 0] [0x2 6 1 [34 0] [38 4]] (REQUEST)
r 1.156478432 _20_ RTR  --- 0 AODV 48 [0 ffffffff f 800] ------- [15:255 -1:255 25 0] [0x2 6 1 [34 0] [38 4]] (REQUEST)
r 1.156478682 _16_ RTR  --- 0 AODV 48 [0 ffffffff f 800] ------- [15:255 -1:255 25 0] [0x2 6 1 [34 0] [38 4]] (REQUEST)
r 1.156478801 _11_ RTR  --- 0 AODV 48 [0 ffffffff f 800] ------- [15:255 -1:255 25 0] [0x2 6 1 [34 0] [38 4]] (REQUEST)
r 1.156478801 _21_ RTR  --- 0 AODV 48 [0 ffffffff f 800] ------- [15:255 -1:255 25 0] [0x2 6 1 [34 0] [38 4]] (REQUEST)
r 1.156478848 _5_ RTR  --- 0 AODV 48 [0 ffffffff f 800] ------- [15:255 -1:255 25 0] [0x2 6 1 [34 0] [38 4]] (REQUEST)
r 1.156478848 _25_ RTR  --- 0 AODV 48 [0 ffffffff f 800] ------- [15:255 -1:255 25 0] [0x2 6 1 [34 0] [38 4]] (REQUEST)
r 1.157093850 _8_ RTR  --- 0 AODV 48 [0 ffffffff 3 800] ------- [3:255 -1:255 29 0] [0x2 2 1 [33 0] [4 4]] (REQUEST)
r 1.157094100 _2_ RTR  --- 0 AODV 48 [0 ffffffff 3 800] ------- [3:255 -1:255 29 0] [0x2 2 1 [33 0] [4 4]] (REQUEST)
r 1.157094100 _4_ RTR  --- 0 AODV 48 [0 ffffffff 3 800] ------- [3:255 -1:255 29 0] [0x2 2 1 [33 0] [4 4]] (REQUEST)
r 1.157094220 _7_ RTR  --- 0 AODV 48 [0 ffffffff 3 800] ------- [3:255 -1:255 29 0] [0x2 2 1 [33 0] [4 4]] (REQUEST)
r 1.157094220 _9_ RTR  --- 0 AODV 48 [0 ffffffff 3 800] ------- [3:255 -1:255 29 0] [0x2 2 1 [33 0] [4 4]] (REQUEST)
r 1.157094267 _13_ RTR  --- 0 AODV 48 [0 ffffffff 3 800] ------- [3:255 -1:255 29 0] [0x2 2 1 [33 0] [4 4]] (REQUEST)
r 1.157341851 _38_ AGT  --- 3 ack 40 [0 26 22 800] ------- [34:1 38:0 30 38] [0 0] 1 0
s 1.157341851 _38_ AGT  --- 4 tcp 1040 [0 0 0 0] ------- [38:0 34:1 32 0] [1 0] 0 0
r 1.157341851 _38_ RTR  --- 4 tcp 1040 [0 0 0 0] ------- [38:0 34:1 32 0] [1 0] 0 0
s 1.157341851 _38_ RTR  --- 4 tcp 1040 [0 0 0 0] ------- [38:0 34:1 30 34] [1 0] 0 0
s 1.157529906 _4_ RTR  --- 0 AODV 48 [0 ffffffff 3 800] ------- [4:255 -1:255 28 0] [0x2 3 1 [39 0] [13 4]] (REQUEST)
s 1.158135860 _35_ RTR  --- 0 AODV 48 [0 ffffffff 19 800] ------- [35:255 -1:255 25 0] [0x2 6 1 [34 0] [38 4]] (REQUEST)
s 1.158142143 _1_ RTR  --- 0 AODV 48 [0 ffffffff 2 800] ------- [1:255 -1:255 27 0] [0x2 4 1 [33 0] [4 4]] (REQUEST)
s 1.158361760 _2_ RTR  --- 0 AODV 48 [0 ffffffff 3 800] ------- [2:255 -1:255 28 0] [0x2 3 1 [39 0] [13 4]] (REQUEST)
r 1.159411010 _9_ RTR  --- 0 AODV 48 [0 ffffffff e 800] ------- [14:255 -1:255 25 0] [0x2 6 1 [34 0] [38 4]] (REQUEST)
r 1.159411010 _19_ RTR  --- 0 AODV 48 [0 ffffffff e 800] ------- [14:255 -1:255 25 0] [0x2 6 1 [34 0] [38 4]] (REQUEST)
r 1.159411260 _13_ RTR  --- 0 AODV 48 [0 ffffffff e 800] ------- [14:255 -1:255 25 0] [0x2 6 1 [34 0] [38 4]] (REQUEST)
r 1.159411427 _4_ RTR  --- 0 AODV 48 [0 ffffffff e 800] ------- [14:255 -1:255 25 0] [0x2 6 1 [34 0] [38 4]] (REQUEST)
s 1.159547638 _9_ RTR  --- 0 AODV 48 [0 ffffffff 3 800] ------- [9:255 -1:255 28 0] [0x2 3 1 [39 0] [13 4]] (REQUEST)
r 1.160044535 _1_ RTR  --- 0 AODV 48 [0 ffffffff 6 800] ------- [6:255 -1:255 25 0] [0x2 6 1 [34 0] [38 4]] (REQUEST)
r 1.160044535 _11_ RTR  --- 0 AODV 48 [0 ffffffff 6 800] ------- [6:255 -1:255 25 0] [0x2 6 1 [34 0] [38 4]] (REQUEST)
r 1.160044785 _5_ RTR  --- 0 AODV 48 [0 ffffffff 6 800] ------- [6:255 -1:255 25 0] [0x2 6 1 [34 0] [38 4]] (REQUEST)
r 1.160044785 _7_ RTR  --- 0 AODV 48 [0 ffffffff 6 800] ------- [6:255 -1:255 25 0] [0x2 6 1 [34 0] [38 4]] (REQUEST)
r 1.160044905 _2_ RTR  --- 0 AODV 48 [0 ffffffff 6 800] ------- [6:255 -1:255 25 0] [0x2 6 1 [34 0] [38 4]] (REQUEST)
r 1.160044905 _0_ RTR  --- 0 AODV 48 [0 ffffffff 6 800] ------- [6:255 -1:255 25 0] [0x2 6 1 [34 0] [38 4]] (REQUEST)
r 1.160044905 _10_ RTR  --- 0 AODV 48 [0 ffffffff 6 800] ------- [6:255 -1:255 25 0] [0x2 6 1 [34 0] [38 4]] (REQUEST)
s 1.160201287 _5_ RTR  --- 0 AODV 48 [0 ffffffff f 800] ------- [5:255 -1:255 24 0] [0x2 7 1 [34 0] [38 4]] (REQUEST)
r 1.160784637 _34_ AGT  --- 4 tcp 16 [0 22 26 800] ------- [38:0 34:1 30 34] [1 0] 1 0
s 1.160784637 _34_ AGT  --- 5 ack 40 [0 0 0 0] ------- [34:1 38:0 32 0] [1 0] 0 0
r 1.160784637 _34_ RTR  --- 5 ack 40 [0 0 0 0] ------- [34:1 38:0 32 0] [1 0] 0 0
s 1.160784637 _34_ RTR  --- 5 ack 40 [0 0 0 0] ------- [34:1 38:0 30 38] [1 0] 0 0
s 1.160899262 _0_ RTR  --- 0 AODV 48 [0 ffffffff 6 800] ------- [0:255 -1:255 24 0] [0x2 7 1 [34 0] [38 4]] (REQUEST)
r 1.161877271 _25_ RTR  --- 0 AODV 48 [0 ffffffff 1e 800] ------- [30:255 -1:255 26 0] [0x2 5 1 [34 0] [38 4]] (REQUEST)
r 1.161877271 _35_ RTR  --- 0 AODV 48 [0 ffffffff 1e 800] ------- [30:255 -1:255 26 0] [0x2 5 1 [34 0] [38 4]] (REQUEST)
r 1.161877521 _31_ RTR  --- 0 AODV 48 [0 ffffffff 1e 800] ------- [30:255 -1:255 26 0] [0x2 5 1 [34 0] [38 4]] (REQUEST)
r 1.162288496 _7_ RTR  --- 0 AODV 48 [0 ffffffff c 800] ------- [12:255 -1:255 28 0] [0x2 3 1 [33 0] [4 4]] (REQUEST)
r 1.162288496 _17_ RTR  --- 0 AODV 48 [0 ffffffff c 800] ------- [12:255 -1:255 28 0] [0x2 3 1 [33 0] [4 4]] (REQUEST)
r 1.162288746 _11_ RTR  --- 0 AODV 48 [0 ffffffff c 800] ------- [12:255 -1:255 28 0] [0x2 3 1 [33 0] [4 4]] (REQUEST)
r 1.162288746 _13_ RTR  --- 0 AODV 48 [0 ffffffff c 800] ------- [12:255 -1:255 28 0] [0x2 3 1 [33 0] [4 4]] (REQUEST)
r 1.162288865 _8_ RTR  --- 0 AODV 48 [0 ffffffff c 800] ------- [12:255 -1:255 28 0] [0x2 3 1 [33 0] [4 4]] (REQUEST)
r 1.162288865 _6_ RTR  --- 0 AODV 48 [0 ffffffff c 800] ------- [12:255 -1:255 28 0] [0x2 3 1 [33 0] [4 4]] (REQUEST)
r 1.162288865 _16_ RTR  --- 0 AODV 48 [0 ffffffff c 800] ------- [12:255 -1:255 28 0] [0x2 3 1 [33 0] [4 4]] (REQUEST)
r 1.162288865 _18_ RTR  --- 0 AODV 48 [0 ffffffff c 800] ------- [12:255 -1:255 28 0] [0x2 3 1 [33 0] [4 4]] (REQUEST)
r 1.162288912 _2_ RTR  --- 0 AODV 48 [0 ffffffff c 800] ------- [12:255 -1:255 28 0] [0x2 3 1 [33 0] [4 4]] (REQUEST)
s 1.163836034 _16_ RTR  --- 0 AODV 48 [0 ffffffff c 800] ------- [16:255 -1:255 27 0] [0x2 4 1 [33 0] [4 4]] (REQUEST)
r 1.164355423 _38_ AGT  --- 5 ack 40 [0 26 22 800] ------- [34:1 38:0 30 38] [1 0] 1 0
r 1.164501679 _5_ RTR  --- 0 AODV 48 [0 ffffffff 0 800] ------- [0:255 -1:255 24 0] [0x2 7 1 [34 0] [38 4]] (REQUEST)
r 1.164502096 _10_ RTR  --- 0 AODV 48 [0 ffffffff 0 800] ------- [0:255 -1:255 24 0] [0x2 7 1 [34 0] [38 4]] (REQUEST)
s 1.164650024 _2_ RTR  --- 0 AODV 48 [0 ffffffff 6 800] ------- [2:255 -1:255 24 0] [0x2 7 1 [34 0] [38 4]] (REQUEST)
r 1.164652176 _7_ RTR  --- 0 AODV 48 [0 ffffffff 2 800] ------- [2:255 -1:255 28 0] [0x2 3 1 [39 0] [13 4]] (REQUEST)
r 1.164780323 _9_ RTR  --- 0 AODV 48 [0 ffffffff 4 800] ------- [4:255 -1:255 28 0] [0x2 3 1 [39 0] [13 4]] (REQUEST)
s 1.165507286 _4_ RTR  --- 0 AODV 48 [0 ffffffff e 800] ------- [4:255 -1:255 24 0] [0x2 7 1 [34 0] [38 4]] (REQUEST)
r 1.165706277 _30_ RTR  --- 0 AODV 48 [0 ffffffff 23 800] ------- [35:255 -1:255 25 0] [0x2 6 1 [34 0] [38 4]] (REQUEST)
r 1.165706527 _36_ RTR  --- 0 AODV 48 [0 ffffffff 23 800] ------- [35:255 -1:255 25 0] [0x2 6 1 [34 0] [38 4]] (REQUEST)
r 1.165706694 _25_ RTR  --- 0 AODV 48 [0 ffffffff 23 800] ------- [35:255 -1:255 25 0] [0x2 6 1 [34 0] [38 4]] (REQUEST)
r 1.167350097 _3_ RTR  --- 0 AODV 48 [0 ffffffff 8 800] ------- [8:255 -1:255 29 0] [0x2 2 1 [39 0] [13 4]] (REQUEST)
r 1.167350097 _13_ RTR  --- 0 AODV 48 [0 ffffffff 8 800] ------- [8:255 -1:255 29 0] [0x2 2 1 [39 0] [13 4]] (REQUEST)
r 1.167350347 _7_ RTR  --- 0 AODV 48 [0 ffffffff 8 800] ------- [8:255 -1:255 29 0] [0x2 2 1 [39 0] [13 4]] (REQUEST)
r 1.167350347 _9_ RTR  --- 0 AODV 48 [0 ffffffff 8 800] ------- [8:255 -1:255 29 0] [0x2 2 1 [39 0] [13 4]] (REQUEST)
r 1.167350466 _4_ RTR  --- 0 AODV 48 [0 ffffffff 8 800] ------- [8:255 -1:255 29 0] [0x2 2 1 [39 0] [13 4]] (REQUEST)
r 1.167350466 _14_ RTR  --- 0 AODV 48 [0 ffffffff 8 800] ------- [8:255 -1:255 29 0] [0x2 2 1 [39 0] [13 4]] (REQUEST)
r 1.167350513 _18_ RTR  --- 0 AODV 48 [0 ffffffff 8 800] ------- [8:255 -1:255 29 0] [0x2 2 1 [39 0] [13 4]] (REQUEST)
s 1.167382966 _13_ RTR  --- 0 AODV 48 [0 ffffffff e 800] ------- [13:255 -1:255 24 0] [0x2 7 1 [34 0] [38 4]] (REQUEST)
s 1.167665765 _11_ RTR  --- 0 AODV 48 [0 ffffffff c 800] ------- [11:255 -1:255 27 0] [0x2 4 1 [33 0] [4 4]] (REQUEST)
s 1.167801864 _14_ RTR  --- 0 AODV 48 [0 ffffffff 8 800] ------- [14:255 -1:255 28 0] [0x2 3 1 [39 0] [13 4]] (REQUEST)
s 1.168712754 _7_ RTR  --- 0 AODV 48 [0 ffffffff 6 800] ------- [7:255 -1:255 24 0] [0x2 7 1 [34 0] [38 4]] (REQUEST)
s 1.168880797 _17_ RTR  --- 0 AODV 48 [0 ffffffff c 800] ------- [17:255 -1:255 27 0] [0x2 4 1 [33 0] [4 4]] (REQUEST)
s 1.169050980 _1_ RTR  --- 0 AODV 48 [0 ffffffff 6 800] ------- [1:255 -1:255 24 0] [0x2 7 1 [34 0] [38 4]] (REQUEST)
r 1.169051704 _0_ RTR  --- 0 AODV 48 [0 ffffffff 5 800] ------- [5:255 -1:255 24 0] [0x2 7 1 [34 0] [38 4]] (REQUEST)
r 1.169051704 _10_ RTR  --- 0 AODV 48 [0 ffffffff 5 800] ------- [5:255 -1:255 24 0] [0x2 7 1 [34 0] [38 4]] (REQUEST)
r 1.169051954 _6_ RTR  --- 0 AODV 48 [0 ffffffff 5 800] ------- [5:255 -1:255 24 0] [0x2 7 1 [34 0] [38 4]] (REQUEST)
r 1.169052121 _15_ RTR  --- 0 AODV 48 [0 ffffffff 5 800] ------- [5:255 -1:255 24 0] [0x2 7 1 [34 0] [38 4]] (REQUEST)