s 1.092181956 _20_ AGT  --- 0 tcp 40 [0 0 0 0] ------- [20:0 14:0 32 0] [0 0] 0 0
r 1.092181956 _20_ RTR  --- 0 tcp 40 [0 0 0 0] ------- [20:0 14:0 32 0] [0 0] 0 0
s 1.092181956 _20_ RTR  --- 0 AODV 48 [0 0 0 0] ------- [20:255 -1:255 30 0] [0x2 1 1 [14 0] [20 4]] (REQUEST)
r 1.097384163 _21_ RTR  --- 0 AODV 48 [0 ffffffff 14 800] ------- [20:255 -1:255 30 0] [0x2 1 1 [14 0] [20 4]] (REQUEST)
r 1.097384166 _19_ RTR  --- 0 AODV 48 [0 ffffffff 14 800] ------- [20:255 -1:255 30 0] [0x2 1 1 [14 0] [20 4]] (REQUEST)
r 1.097384289 _12_ RTR  --- 0 AODV 48 [0 ffffffff 14 800] ------- [20:255 -1:255 30 0] [0x2 1 1 [14 0] [20 4]] (REQUEST)
r 1.097384289 _28_ RTR  --- 0 AODV 48 [0 ffffffff 14 800] ------- [20:255 -1:255 30 0] [0x2 1 1 [14 0] [20 4]] (REQUEST)
r 1.097384348 _13_ RTR  --- 0 AODV 48 [0 ffffffff 14 800] ------- [20:255 -1:255 30 0] [0x2 1 1 [14 0] [20 4]] (REQUEST)
r 1.097384348 _29_ RTR  --- 0 AODV 48 [0 ffffffff 14 800] ------- [20:255 -1:255 30 0] [0x2 1 1 [14 0] [20 4]] (REQUEST)
r 1.097384350 _11_ RTR  --- 0 AODV 48 [0 ffffffff 14 800] ------- [20:255 -1:255 30 0] [0x2 1 1 [14 0] [20 4]] (REQUEST)
r 1.097384350 _27_ RTR  --- 0 AODV 48 [0 ffffffff 14 800] ------- [20:255 -1:255 30 0] [0x2 1 1 [14 0] [20 4]] (REQUEST)
r 1.097384373 _18_ RTR  --- 0 AODV 48 [0 ffffffff 14 800] ------- [20:255 -1:255 30 0] [0x2 1 1 [14 0] [20 4]] (REQUEST)
r 1.097384373 _22_ RTR  --- 0 AODV 48 [0 ffffffff 14 800] ------- [20:255 -1:255 30 0] [0x2 1 1 [14 0] [20 4]] (REQUEST)
r 1.097384490 _14_ RTR  --- 0 AODV 48 [0 ffffffff 14 800] ------- [20:255 -1:255 30 0] [0x2 1 1 [14 0] [20 4]] (REQUEST)
r 1.097384490 _10_ RTR  --- 0 AODV 48 [0 ffffffff 14 800] ------- [20:255 -1:255 30 0] [0x2 1 1 [14 0] [20 4]] (REQUEST)
r 1.097384490 _26_ RTR  --- 0 AODV 48 [0 ffffffff 14 800] ------- [20:255 -1:255 30 0] [0x2 1 1 [14 0] [20 4]] (REQUEST)
r 1.097384490 _30_ RTR  --- 0 AODV 48 [0 ffffffff 14 800] ------- [20:255 -1:255 30 0] [0x2 1 1 [14 0] [20 4]] (REQUEST)
s 1.097384490 _14_ RTR  --- 0 AODV 44 [0 0 0 0] ------- [14:255 20:255 30 20] [0x4 1 [14 4] 10.000000] (REPLY)
r 1.097384579 _23_ RTR  --- 0 AODV 48 [0 ffffffff 14 800] ------- [20:255 -1:255 30 0] [0x2 1 1 [14 0] [20 4]] (REQUEST)
r 1.097384583 _17_ RTR  --- 0 AODV 48 [0 ffffffff 14 800] ------- [20:255 -1:255 30 0] [0x2 1 1 [14 0] [20 4]] (REQUEST)
r 1.097384623 _4_ RTR  --- 0 AODV 48 [0 ffffffff 14 800] ------- [20:255 -1:255 30 0] [0x2 1 1 [14 0] [20 4]] (REQUEST)
r 1.097384623 _36_ RTR  --- 0 AODV 48 [0 ffffffff 14 800] ------- [20:255 -1:255 30 0] [0x2 1 1 [14 0] [20 4]] (REQUEST)
r 1.097384654 _5_ RTR  --- 0 AODV 48 [0 ffffffff 14 800] ------- [20:255 -1:255 30 0] [0x2 1 1 [14 0] [20 4]] (REQUEST)
r 1.097384654 _37_ RTR  --- 0 AODV 48 [0 ffffffff 14 800] ------- [20:255 -1:255 30 0] [0x2 1 1 [14 0] [20 4]] (REQUEST)
r 1.097384655 _3_ RTR  --- 0 AODV 48 [0 ffffffff 14 800] ------- [20:255 -1:255 30 0] [0x2 1 1 [14 0] [20 4]] (REQUEST)
r 1.097384655 _35_ RTR  --- 0 AODV 48 [0 ffffffff 14 800] ------- [20:255 -1:255 30 0] [0x2 1 1 [14 0] [20 4]] (REQUEST)
r 1.097384663 _15_ RTR  --- 0 AODV 48 [0 ffffffff 14 800] ------- [20:255 -1:255 30 0] [0x2 1 1 [14 0] [20 4]] (REQUEST)
r 1.097384663 _31_ RTR  --- 0 AODV 48 [0 ffffffff 14 800] ------- [20:255 -1:255 30 0] [0x2 1 1 [14 0] [20 4]] (REQUEST)
r 1.097384666 _9_ RTR  --- 0 AODV 48 [0 ffffffff 14 800] ------- [20:255 -1:255 30 0] [0x2 1 1 [14 0] [20 4]] (REQUEST)
r 1.097384666 _25_ RTR  --- 0 AODV 48 [0 ffffffff 14 800] ------- [20:255 -1:255 30 0] [0x2 1 1 [14 0] [20 4]] (REQUEST)
r 1.097384742 _6_ RTR  --- 0 AODV 48 [0 ffffffff 14 800] ------- [20:255 -1:255 30 0] [0x2 1 1 [14 0] [20 4]] (REQUEST)
r 1.097384742 _2_ RTR  --- 0 AODV 48 [0 ffffffff 14 800] ------- [20:255 -1:255 30 0] [0x2 1 1 [14 0] [20 4]] (REQUEST)
r 1.097384742 _34_ RTR  --- 0 AODV 48 [0 ffffffff 14 800] ------- [20:255 -1:255 30 0] [0x2 1 1 [14 0] [20 4]] (REQUEST)
r 1.097384742 _38_ RTR  --- 0 AODV 48 [0 ffffffff 14 800] ------- [20:255 -1:255 30 0] [0x2 1 1 [14 0] [20 4]] (REQUEST)
r 1.097384789 _16_ RTR  --- 0 AODV 48 [0 ffffffff 14 800] ------- [20:255 -1:255 30 0] [0x2 1 1 [14 0] [20 4]] (REQUEST)
s 1.097544345 _22_ RTR  --- 0 AODV 48 [0 ffffffff 14 800] ------- [22:255 -1:255 29 0] [0x2 2 1 [14 0] [20 4]] (REQUEST)
s 1.097703704 _12_ RTR  --- 0 AODV 48 [0 ffffffff 14 800] ------- [12:255 -1:255 29 0] [0x2 2 1 [14 0] [20 4]] (REQUEST)
s 1.097779825 _16_ RTR  --- 0 AODV 48 [0 ffffffff 14 800] ------- [16:255 -1:255 29 0] [0x2 2 1 [14 0] [20 4]] (REQUEST)
s 1.098029633 _2_ RTR  --- 0 AODV 48 [0 ffffffff 14 800] ------- [2:255 -1:255 29 0] [0x2 2 1 [14 0] [20 4]] (REQUEST)
s 1.098576351 _23_ RTR  --- 0 AODV 48 [0 ffffffff 14 800] ------- [23:255 -1:255 29 0] [0x2 2 1 [14 0] [20 4]] (REQUEST)
s 1.098969803 _25_ RTR  --- 0 AODV 48 [0 ffffffff 14 800] ------- [25:255 -1:255 29 0] [0x2 2 1 [14 0] [20 4]] (REQUEST)
s 1.099096356 _19_ RTR  --- 0 AODV 48 [0 ffffffff 14 800] ------- [19:255 -1:255 29 0] [0x2 2 1 [14 0] [20 4]] (REQUEST)
s 1.099151590 _34_ RTR  --- 0 AODV 48 [0 ffffffff 14 800] ------- [34:255 -1:255 29 0] [0x2 2 1 [14 0] [20 4]] (REQUEST)
s 1.099460524 _18_ RTR  --- 0 AODV 48 [0 ffffffff 14 800] ------- [18:255 -1:255 29 0] [0x2 2 1 [14 0] [20 4]] (REQUEST)
s 1.099526143 _4_ RTR  --- 0 AODV 48 [0 ffffffff 14 800] ------- [4:255 -1:255 29 0] [0x2 2 1 [14 0] [20 4]] (REQUEST)
s 1.099740149 _6_ RTR  --- 0 AODV 48 [0 ffffffff 14 800] ------- [6:255 -1:255 29 0] [0x2 2 1 [14 0] [20 4]] (REQUEST)
s 1.100696610 _30_ RTR  --- 0 AODV 48 [0 ffffffff 14 800] ------- [30:255 -1:255 29 0] [0x2 2 1 [14 0] [20 4]] (REQUEST)
s 1.101459445 _37_ RTR  --- 0 AODV 48 [0 ffffffff 14 800] ------- [37:255 -1:255 29 0] [0x2 2 1 [14 0] [20 4]] (REQUEST)
s 1.101613978 _5_ RTR  --- 0 AODV 48 [0 ffffffff 14 800] ------- [5:255 -1:255 29 0] [0x2 2 1 [14 0] [20 4]] (REQUEST)
s 1.101688671 _36_ RTR  --- 0 AODV 48 [0 ffffffff 14 800] ------- [36:255 -1:255 29 0] [0x2 2 1 [14 0] [20 4]] (REQUEST)
s 1.101756711 _26_ RTR  --- 0 AODV 48 [0 ffffffff 14 800] ------- [26:255 -1:255 29 0] [0x2 2 1 [14 0] [20 4]] (REQUEST)
s 1.101783634 _10_ RTR  --- 0 AODV 48 [0 ffffffff 14 800] ------- [10:255 -1:255 29 0] [0x2 2 1 [14 0] [20 4]] (REQUEST)
s 1.101896965 _27_ RTR  --- 0 AODV 48 [0 ffffffff 14 800] ------- [27:255 -1:255 29 0] [0x2 2 1 [14 0] [20 4]] (REQUEST)
r 1.101932010 _24_ RTR  --- 0 AODV 48 [0 ffffffff 19 800] ------- [25:255 -1:255 29 0] [0x2 2 1 [14 0] [20 4]] (REQUEST)
r 1.101932013 _26_ RTR  --- 0 AODV 48 [0 ffffffff 19 800] ------- [25:255 -1:255 29 0] [0x2 2 1 [14 0] [20 4]] (REQUEST)
r 1.101932136 _17_ RTR  --- 0 AODV 48 [0 ffffffff 19 800] ------- [25:255 -1:255 29 0] [0x2 2 1 [14 0] [20 4]] (REQUEST)
r 1.101932136 _33_ RTR  --- 0 AODV 48 [0 ffffffff 19 800] ------- [25:255 -1:255 29 0] [0x2 2 1 [14 0] [20 4]] (REQUEST)
r 1.101932195 _16_ RTR  --- 0 AODV 48 [0 ffffffff 19 800] ------- [25:255 -1:255 29 0] [0x2 2 1 [14 0] [20 4]] (REQUEST)
r 1.101932195 _32_ RTR  --- 0 AODV 48 [0 ffffffff 19 800] ------- [25:255 -1:255 29 0] [0x2 2 1 [14 0] [20 4]] (REQUEST)
r 1.101932197 _18_ RTR  --- 0 AODV 48 [0 ffffffff 19 800] ------- [25:255 -1:255 29 0] [0x2 2 1 [14 0] [20 4]] (REQUEST)
r 1.101932197 _34_ RTR  --- 0 AODV 48 [0 ffffffff 19 800] ------- [25:255 -1:255 29 0] [0x2 2 1 [14 0] [20 4]] (REQUEST)
r 1.101932220 _27_ RTR  --- 0 AODV 48 [0 ffffffff 19 800] ------- [25:255 -1:255 29 0] [0x2 2 1 [14 0] [20 4]] (REQUEST)
r 1.101932337 _19_ RTR  --- 0 AODV 48 [0 ffffffff 19 800] ------- [25:255 -1:255 29 0] [0x2 2 1 [14 0] [20 4]] (REQUEST)
r 1.101932337 _35_ RTR  --- 0 AODV 48 [0 ffffffff 19 800] ------- [25:255 -1:255 29 0] [0x2 2 1 [14 0] [20 4]] (REQUEST)
r 1.101932430 _28_ RTR  --- 0 AODV 48 [0 ffffffff 19 800] ------- [25:255 -1:255 29 0] [0x2 2 1 [14 0] [20 4]] (REQUEST)
r 1.101932470 _9_ RTR  --- 0 AODV 48 [0 ffffffff 19 800] ------- [25:255 -1:255 29 0] [0x2 2 1 [14 0] [20 4]] (REQUEST)
r 1.101932501 _8_ RTR  --- 0 AODV 48 [0 ffffffff 19 800] ------- [25:255 -1:255 29 0] [0x2 2 1 [14 0] [20 4]] (REQUEST)
r 1.101932502 _10_ RTR  --- 0 AODV 48 [0 ffffffff 19 800] ------- [25:255 -1:255 29 0] [0x2 2 1 [14 0] [20 4]] (REQUEST)
r 1.101932513 _20_ RTR  --- 0 AODV 48 [0 ffffffff 19 800] ------- [25:255 -1:255 29 0] [0x2 2 1 [14 0] [20 4]] (REQUEST)
r 1.101932513 _36_ RTR  --- 0 AODV 48 [0 ffffffff 19 800] ------- [25:255 -1:255 29 0] [0x2 2 1 [14 0] [20 4]] (REQUEST)
r 1.101932589 _11_ RTR  --- 0 AODV 48 [0 ffffffff 19 800] ------- [25:255 -1:255 29 0] [0x2 2 1 [14 0] [20 4]] (REQUEST)
r 1.101932636 _29_ RTR  --- 0 AODV 48 [0 ffffffff 19 800] ------- [25:255 -1:255 29 0] [0x2 2 1 [14 0] [20 4]] (REQUEST)
s 1.102232396 _35_ RTR  --- 0 AODV 48 [0 ffffffff 14 800] ------- [35:255 -1:255 29 0] [0x2 2 1 [14 0] [20 4]] (REQUEST)
s 1.102591819 _11_ RTR  --- 0 AODV 48 [0 ffffffff 14 800] ------- [11:255 -1:255 29 0] [0x2 2 1 [14 0] [20 4]] (REQUEST)
s 1.103537915 _13_ RTR  --- 0 AODV 48 [0 ffffffff 14 800] ------- [13:255 -1:255 29 0] [0x2 2 1 [14 0] [20 4]] (REQUEST)
s 1.103613562 _31_ RTR  --- 0 AODV 48 [0 ffffffff 14 800] ------- [31:255 -1:255 29 0] [0x2 2 1 [14 0] [20 4]] (REQUEST)
r 1.104302356 _7_ RTR  --- 0 AODV 48 [0 ffffffff 6 800] ------- [6:255 -1:255 29 0] [0x2 2 1 [14 0] [20 4]] (REQUEST)
r 1.104302359 _5_ RTR  --- 0 AODV 48 [0 ffffffff 6 800] ------- [6:255 -1:255 29 0] [0x2 2 1 [14 0] [20 4]] (REQUEST)
r 1.104302541 _15_ RTR  --- 0 AODV 48 [0 ffffffff 6 800] ------- [6:255 -1:255 29 0] [0x2 2 1 [14 0] [20 4]] (REQUEST)
s 1.104579494 _24_ RTR  --- 0 AODV 48 [0 ffffffff 19 800] ------- [24:255 -1:255 28 0] [0x2 3 1 [14 0] [20 4]] (REQUEST)
s 1.104741190 _3_ RTR  --- 0 AODV 48 [0 ffffffff 14 800] ------- [3:255 -1:255 29 0] [0x2 2 1 [14 0] [20 4]] (REQUEST)
s 1.104936644 _28_ RTR  --- 0 AODV 48 [0 ffffffff 14 800] ------- [28:255 -1:255 29 0] [0x2 2 1 [14 0] [20 4]] (REQUEST)
s 1.105280632 _29_ RTR  --- 0 AODV 48 [0 ffffffff 14 800] ------- [29:255 -1:255 29 0] [0x2 2 1 [14 0] [20 4]] (REQUEST)
s 1.105442481 _21_ RTR  --- 0 AODV 48 [0 ffffffff 14 800] ------- [21:255 -1:255 29 0] [0x2 2 1 [14 0] [20 4]] (REQUEST)
s 1.105600771 _7_ RTR  --- 0 AODV 48 [0 ffffffff 6 800] ------- [7:255 -1:255 28 0] [0x2 3 1 [14 0] [20 4]] (REQUEST)
s 1.105718509 _33_ RTR  --- 0 AODV 48 [0 ffffffff 19 800] ------- [33:255 -1:255 28 0] [0x2 3 1 [14 0] [20 4]] (REQUEST)
s 1.105892494 _9_ RTR  --- 0 AODV 48 [0 ffffffff 14 800] ------- [9:255 -1:255 29 0] [0x2 2 1 [14 0] [20 4]] (REQUEST)
s 1.106098190 _38_ RTR  --- 0 AODV 48 [0 ffffffff 14 800] ------- [38:255 -1:255 29 0] [0x2 2 1 [14 0] [20 4]] (REQUEST)
s 1.106352672 _15_ RTR  --- 0 AODV 48 [0 ffffffff 14 800] ------- [15:255 -1:255 29 0] [0x2 2 1 [14 0] [20 4]] (REQUEST)
s 1.106378729 _17_ RTR  --- 0 AODV 48 [0 ffffffff 14 800] ------- [17:255 -1:255 29 0] [0x2 2 1 [14 0] [20 4]] (REQUEST)
r 1.106666820 _29_ RTR  --- 0 AODV 48 [0 ffffffff 1e 800] ------- [30:255 -1:255 29 0] [0x2 2 1 [14 0] [20 4]] (REQUEST)
r 1.106666943 _38_ RTR  --- 0 AODV 48 [0 ffffffff 1e 800] ------- [30:255 -1:255 29 0] [0x2 2 1 [14 0] [20 4]] (REQUEST)
r 1.106667004 _37_ RTR  --- 0 AODV 48 [0 ffffffff 1e 800] ------- [30:255 -1:255 29 0] [0x2 2 1 [14 0] [20 4]] (REQUEST)
r 1.106786684 _15_ RTR  --- 0 AODV 48 [0 ffffffff 17 800] ------- [23:255 -1:255 29 0] [0x2 2 1 [14 0] [20 4]] (REQUEST)
s 1.108049477 _32_ RTR  --- 0 AODV 48 [0 ffffffff 19 800] ------- [32:255 -1:255 28 0] [0x2 3 1 [14 0] [20 4]] (REQUEST)
s 1.108486918 _8_ RTR  --- 0 AODV 48 [0 ffffffff 19 800] ------- [8:255 -1:255 28 0] [0x2 3 1 [14 0] [20 4]] (REQUEST)
r 1.108811350 _37_ RTR  --- 0 AODV 48 [0 ffffffff 24 800] ------- [36:255 -1:255 29 0] [0x2 2 1 [14 0] [20 4]] (REQUEST)
r 1.108811353 _35_ RTR  --- 0 AODV 48 [0 ffffffff 24 800] ------- [36:255 -1:255 29 0] [0x2 2 1 [14 0] [20 4]] (REQUEST)
r 1.108811477 _28_ RTR  --- 0 AODV 48 [0 ffffffff 24 800] ------- [36:255 -1:255 29 0] [0x2 2 1 [14 0] [20 4]] (REQUEST)
r 1.108811536 _29_ RTR  --- 0 AODV 48 [0 ffffffff 24 800] ------- [36:255 -1:255 29 0] [0x2 2 1 [14 0] [20 4]] (REQUEST)
r 1.108811537 _27_ RTR  --- 0 AODV 48 [0 ffffffff 24 800] ------- [36:255 -1:255 29 0] [0x2 2 1 [14 0] [20 4]] (REQUEST)
r 1.108811560 _34_ RTR  --- 0 AODV 48 [0 ffffffff 24 800] ------- [36:255 -1:255 29 0] [0x2 2 1 [14 0] [20 4]] (REQUEST)
r 1.108811560 _38_ RTR  --- 0 AODV 48 [0 ffffffff 24 800] ------- [36:255 -1:255 29 0] [0x2 2 1 [14 0] [20 4]] (REQUEST)
r 1.108811677 _30_ RTR  --- 0 AODV 48 [0 ffffffff 24 800] ------- [36:255 -1:255 29 0] [0x2 2 1 [14 0] [20 4]] (REQUEST)
r 1.108811677 _26_ RTR  --- 0 AODV 48 [0 ffffffff 24 800] ------- [36:255 -1:255 29 0] [0x2 2 1 [14 0] [20 4]] (REQUEST)
r 1.108811767 _39_ RTR  --- 0 AODV 48 [0 ffffffff 24 800] ------- [36:255 -1:255 29 0] [0x2 2 1 [14 0] [20 4]] (REQUEST)
r 1.108811770 _33_ RTR  --- 0 AODV 48 [0 ffffffff 24 800] ------- [36:255 -1:255 29 0] [0x2 2 1 [14 0] [20 4]] (REQUEST)
r 1.108811810 _20_ RTR  --- 0 AODV 48 [0 ffffffff 24 800] ------- [36:255 -1:255 29 0] [0x2 2 1 [14 0] [20 4]] (REQUEST)
r 1.108811841 _21_ RTR  --- 0 AODV 48 [0 ffffffff 24 800] ------- [36:255 -1:255 29 0] [0x2 2 1 [14 0] [20 4]] (REQUEST)
r 1.108811842 _19_ RTR  --- 0 AODV 48 [0 ffffffff 24 800] ------- [36:255 -1:255 29 0] [0x2 2 1 [14 0] [20 4]] (REQUEST)
r 1.108811850 _31_ RTR  --- 0 AODV 48 [0 ffffffff 24 800] ------- [36:255 -1:255 29 0] [0x2 2 1 [14 0] [20 4]] (REQUEST)
r 1.108811853 _25_ RTR  --- 0 AODV 48 [0 ffffffff 24 800] ------- [36:255 -1:255 29 0] [0x2 2 1 [14 0] [20 4]] (REQUEST)
r 1.108811930 _22_ RTR  --- 0 AODV 48 [0 ffffffff 24 800] ------- [36:255 -1:255 29 0] [0x2 2 1 [14 0] [20 4]] (REQUEST)
r 1.108811930 _18_ RTR  --- 0 AODV 48 [0 ffffffff 24 800] ------- [36:255 -1:255 29 0] [0x2 2 1 [14 0] [20 4]] (REQUEST)
r 1.108811977 _32_ RTR  --- 0 AODV 48 [0 ffffffff 24 800] ------- [36:255 -1:255 29 0] [0x2 2 1 [14 0] [20 4]] (REQUEST)
r 1.111094701 _8_ RTR  --- 0 AODV 48 [0 ffffffff 9 800] ------- [9:255 -1:255 29 0] [0x2 2 1 [14 0] [20 4]] (REQUEST)
r 1.111094704 _10_ RTR  --- 0 AODV 48 [0 ffffffff 9 800] ------- [9:255 -1:255 29 0] [0x2 2 1 [14 0] [20 4]] (REQUEST)
r 1.111094827 _1_ RTR  --- 0 AODV 48 [0 ffffffff 9 800] ------- [9:255 -1:255 29 0] [0x2 2 1 [14 0] [20 4]] (REQUEST)
r 1.111094827 _17_ RTR  --- 0 AODV 48 [0 ffffffff 9 800] ------- [9:255 -1:255 29 0] [0x2 2 1 [14 0] [20 4]] (REQUEST)
r 1.111094886 _0_ RTR  --- 0 AODV 48 [0 ffffffff 9 800] ------- [9:255 -1:255 29 0] [0x2 2 1 [14 0] [20 4]] (REQUEST)
r 1.111094886 _16_ RTR  --- 0 AODV 48 [0 ffffffff 9 800] ------- [9:255 -1:255 29 0] [0x2 2 1 [14 0] [20 4]] (REQUEST)
r 1.111094888 _2_ RTR  --- 0 AODV 48 [0 ffffffff 9 800] ------- [9:255 -1:255 29 0] [0x2 2 1 [14 0] [20 4]] (REQUEST)
r 1.111094888 _18_ RTR  --- 0 AODV 48 [0 ffffffff 9 800] ------- [9:255 -1:255 29 0] [0x2 2 1 [14 0] [20 4]] (REQUEST)
r 1.111094911 _11_ RTR  --- 0 AODV 48 [0 ffffffff 9 800] ------- [9:255 -1:255 29 0] [0x2 2 1 [14 0] [20 4]] (REQUEST)
r 1.111095027 _3_ RTR  --- 0 AODV 48 [0 ffffffff 9 800] ------- [9:255 -1:255 29 0] [0x2 2 1 [14 0] [20 4]] (REQUEST)
r 1.111095192 _24_ RTR  --- 0 AODV 48 [0 ffffffff 9 800] ------- [9:255 -1:255 29 0] [0x2 2 1 [14 0] [20 4]] (REQUEST)
r 1.111095204 _4_ RTR  --- 0 AODV 48 [0 ffffffff 9 800] ------- [9:255 -1:255 29 0] [0x2 2 1 [14 0] [20 4]] (REQUEST)
r 1.111108397 _39_ RTR  --- 0 AODV 48 [0 ffffffff 26 800] ------- [38:255 -1:255 29 0] [0x2 2 1 [14 0] [20 4]] (REQUEST)
r 1.111108400 _37_ RTR  --- 0 AODV 48 [0 ffffffff 26 800] ------- [38:255 -1:255 29 0] [0x2 2 1 [14 0] [20 4]] (REQUEST)
r 1.111108524 _30_ RTR  --- 0 AODV 48 [0 ffffffff 26 800] ------- [38:255 -1:255 29 0] [0x2 2 1 [14 0] [20 4]] (REQUEST)
r 1.111108583 _31_ RTR  --- 0 AODV 48 [0 ffffffff 26 800] ------- [38:255 -1:255 29 0] [0x2 2 1 [14 0] [20 4]] (REQUEST)
r 1.111108584 _29_ RTR  --- 0 AODV 48 [0 ffffffff 26 800] ------- [38:255 -1:255 29 0] [0x2 2 1 [14 0] [20 4]] (REQUEST)
r 1.111108607 _36_ RTR  --- 0 AODV 48 [0 ffffffff 26 800] ------- [38:255 -1:255 29 0] [0x2 2 1 [14 0] [20 4]] (REQUEST)
r 1.111108888 _23_ RTR  --- 0 AODV 48 [0 ffffffff 26 800] ------- [38:255 -1:255 29 0] [0x2 2 1 [14 0] [20 4]] (REQUEST)
r 1.113689124 _9_ RTR  --- 0 AODV 48 [0 ffffffff 8 800] ------- [8:255 -1:255 28 0] [0x2 3 1 [14 0] [20 4]] (REQUEST)
r 1.113689251 _0_ RTR  --- 0 AODV 48 [0 ffffffff 8 800] ------- [8:255 -1:255 28 0] [0x2 3 1 [14 0] [20 4]] (REQUEST)
r 1.113689251 _16_ RTR  --- 0 AODV 48 [0 ffffffff 8 800] ------- [8:255 -1:255 28 0] [0x2 3 1 [14 0] [20 4]] (REQUEST)
r 1.113689310 _1_ RTR  --- 0 AODV 48 [0 ffffffff 8 800] ------- [8:255 -1:255 28 0] [0x2 3 1 [14 0] [20 4]] (REQUEST)
r 1.113689310 _17_ RTR  --- 0 AODV 48 [0 ffffffff 8 800] ------- [8:255 -1:255 28 0] [0x2 3 1 [14 0] [20 4]] (REQUEST)
r 1.113689334 _10_ RTR  --- 0 AODV 48 [0 ffffffff 8 800] ------- [8:255 -1:255 28 0] [0x2 3 1 [14 0] [20 4]] (REQUEST)
r 1.113689451 _2_ RTR  --- 0 AODV 48 [0 ffffffff 8 800] ------- [8:255 -1:255 28 0] [0x2 3 1 [14 0] [20 4]] (REQUEST)
r 1.113689451 _18_ RTR  --- 0 AODV 48 [0 ffffffff 8 800] ------- [8:255 -1:255 28 0] [0x2 3 1 [14 0] [20 4]] (REQUEST)
r 1.113689541 _11_ RTR  --- 0 AODV 48 [0 ffffffff 8 800] ------- [8:255 -1:255 28 0] [0x2 3 1 [14 0] [20 4]] (REQUEST)
r 1.113689584 _24_ RTR  --- 0 AODV 48 [0 ffffffff 8 800] ------- [8:255 -1:255 28 0] [0x2 3 1 [14 0] [20 4]] (REQUEST)
r 1.113689616 _25_ RTR  --- 0 AODV 48 [0 ffffffff 8 800] ------- [8:255 -1:255 28 0] [0x2 3 1 [14 0] [20 4]] (REQUEST)
r 1.113689625 _3_ RTR  --- 0 AODV 48 [0 ffffffff 8 800] ------- [8:255 -1:255 28 0] [0x2 3 1 [14 0] [20 4]] (REQUEST)
r 1.113689625 _19_ RTR  --- 0 AODV 48 [0 ffffffff 8 800] ------- [8:255 -1:255 28 0] [0x2 3 1 [14 0] [20 4]] (REQUEST)
r 1.113689704 _26_ RTR  --- 0 AODV 48 [0 ffffffff 8 800] ------- [8:255 -1:255 28 0] [0x2 3 1 [14 0] [20 4]] (REQUEST)
r 1.113689751 _12_ RTR  --- 0 AODV 48 [0 ffffffff 8 800] ------- [8:255 -1:255 28 0] [0x2 3 1 [14 0] [20 4]] (REQUEST)
s 1.115822843 _39_ RTR  --- 0 AODV 48 [0 ffffffff 24 800] ------- [39:255 -1:255 28 0] [0x2 3 1 [14 0] [20 4]] (REQUEST)
s 1.115825089 _1_ RTR  --- 0 AODV 48 [0 ffffffff 9 800] ------- [1:255 -1:255 28 0] [0x2 3 1 [14 0] [20 4]] (REQUEST)
r 1.115937797 _35_ RTR  --- 0 AODV 48 [0 ffffffff 22 800] ------- [34:255 -1:255 29 0] [0x2 2 1 [14 0] [20 4]] (REQUEST)
r 1.115937800 _33_ RTR  --- 0 AODV 48 [0 ffffffff 22 800] ------- [34:255 -1:255 29 0] [0x2 2 1 [14 0] [20 4]] (REQUEST)
r 1.115937924 _26_ RTR  --- 0 AODV 48 [0 ffffffff 22 800] ------- [34:255 -1:255 29 0] [0x2 2 1 [14 0] [20 4]] (REQUEST)
r 1.115937983 _27_ RTR  --- 0 AODV 48 [0 ffffffff 22 800] ------- [34:255 -1:255 29 0] [0x2 2 1 [14 0] [20 4]] (REQUEST)
r 1.115937984 _25_ RTR  --- 0 AODV 48 [0 ffffffff 22 800] ------- [34:255 -1:255 29 0] [0x2 2 1 [14 0] [20 4]] (REQUEST)
r 1.115938007 _32_ RTR  --- 0 AODV 48 [0 ffffffff 22 800] ------- [34:255 -1:255 29 0] [0x2 2 1 [14 0] [20 4]] (REQUEST)
r 1.115938007 _36_ RTR  --- 0 AODV 48 [0 ffffffff 22 800] ------- [34:255 -1:255 29 0] [0x2 2 1 [14 0] [20 4]] (REQUEST)
r 1.115938124 _28_ RTR  --- 0 AODV 48 [0 ffffffff 22 800] ------- [34:255 -1:255 29 0] [0x2 2 1 [14 0] [20 4]] (REQUEST)
r 1.115938124 _24_ RTR  --- 0 AODV 48 [0 ffffffff 22 800] ------- [34:255 -1:255 29 0] [0x2 2 1 [14 0] [20 4]] (REQUEST)
r 1.115938214 _37_ RTR  --- 0 AODV 48 [0 ffffffff 22 800] ------- [34:255 -1:255 29 0] [0x2 2 1 [14 0] [20 4]] (REQUEST)
r 1.115938257 _18_ RTR  --- 0 AODV 48 [0 ffffffff 22 800] ------- [34:255 -1:255 29 0] [0x2 2 1 [14 0] [20 4]] (REQUEST)
r 1.115938288 _19_ RTR  --- 0 AODV 48 [0 ffffffff 22 800] ------- [34:255 -1:255 29 0] [0x2 2 1 [14 0] [20 4]] (REQUEST)
r 1.115938289 _17_ RTR  --- 0 AODV 48 [0 ffffffff 22 800] ------- [34:255 -1:255 29 0] [0x2 2 1 [14 0] [20 4]] (REQUEST)
r 1.115938297 _29_ RTR  --- 0 AODV 48 [0 ffffffff 22 800] ------- [34:255 -1:255 29 0] [0x2 2 1 [14 0] [20 4]] (REQUEST)
r 1.115938377 _20_ RTR  --- 0 AODV 48 [0 ffffffff 22 800] ------- [34:255 -1:255 29 0] [0x2 2 1 [14 0] [20 4]] (REQUEST)
r 1.115938377 _16_ RTR  --- 0 AODV 48 [0 ffffffff 22 800] ------- [34:255 -1:255 29 0] [0x2 2 1 [14 0] [20 4]] (REQUEST)
r 1.115938424 _38_ RTR  --- 0 AODV 48 [0 ffffffff 22 800] ------- [34:255 -1:255 29 0] [0x2 2 1 [14 0] [20 4]] (REQUEST)
r 1.118486731 _19_ RTR  --- 0 AODV 48 [0 ffffffff 12 800] ------- [18:255 -1:255 29 0] [0x2 2 1 [14 0] [20 4]] (REQUEST)
r 1.118486734 _17_ RTR  --- 0 AODV 48 [0 ffffffff 12 800] ------- [18:255 -1:255 29 0] [0x2 2 1 [14 0] [20 4]] (REQUEST)
r 1.118486857 _10_ RTR  --- 0 AODV 48 [0 ffffffff 12 800] ------- [18:255 -1:255 29 0] [0x2 2 1 [14 0] [20 4]] (REQUEST)
r 1.118486857 _26_ RTR  --- 0 AODV 48 [0 ffffffff 12 800] ------- [18:255 -1:255 29 0] [0x2 2 1 [14 0] [20 4]] (REQUEST)
r 1.118486916 _11_ RTR  --- 0 AODV 48 [0 ffffffff 12 800] ------- [18:255 -1:255 29 0] [0x2 2 1 [14 0] [20 4]] (REQUEST)
r 1.118486916 _27_ RTR  --- 0 AODV 48 [0 ffffffff 12 800] ------- [18:255 -1:255 29 0] [0x2 2 1 [14 0] [20 4]] (REQUEST)
r 1.118486918 _9_ RTR  --- 0 AODV 48 [0 ffffffff 12 800] ------- [18:255 -1:255 29 0] [0x2 2 1 [14 0] [20 4]] (REQUEST)
r 1.118486918 _25_ RTR  --- 0 AODV 48 [0 ffffffff 12 800] ------- [18:255 -1:255 29 0] [0x2 2 1 [14 0] [20 4]] (REQUEST)
r 1.118486941 _16_ RTR  --- 0 AODV 48 [0 ffffffff 12 800] ------- [18:255 -1:255 29 0] [0x2 2 1 [14 0] [20 4]] (REQUEST)
r 1.118486941 _20_ RTR  --- 0 AODV 48 [0 ffffffff 12 800] ------- [18:255 -1:255 29 0] [0x2 2 1 [14 0] [20 4]] (REQUEST)
r 1.118487058 _12_ RTR  --- 0 AODV 48 [0 ffffffff 12 800] ------- [18:255 -1:255 29 0] [0x2 2 1 [14 0] [20 4]] (REQUEST)
r 1.118487058 _8_ RTR  --- 0 AODV 48 [0 ffffffff 12 800] ------- [18:255 -1:255 29 0] [0x2 2 1 [14 0] [20 4]] (REQUEST)
r 1.118487058 _24_ RTR  --- 0 AODV 48 [0 ffffffff 12 800] ------- [18:255 -1:255 29 0] [0x2 2 1 [14 0] [20 4]] (REQUEST)
r 1.118487058 _28_ RTR  --- 0 AODV 48 [0 ffffffff 12 800] ------- [18:255 -1:255 29 0] [0x2 2 1 [14 0] [20 4]] (REQUEST)
r 1.118487147 _21_ RTR  --- 0 AODV 48 [0 ffffffff 12 800] ------- [18:255 -1:255 29 0] [0x2 2 1 [14 0] [20 4]] (REQUEST)
r 1.118487191 _2_ RTR  --- 0 AODV 48 [0 ffffffff 12 800] ------- [18:255 -1:255 29 0] [0x2 2 1 [14 0] [20 4]] (REQUEST)
r 1.118487191 _34_ RTR  --- 0 AODV 48 [0 ffffffff 12 800] ------- [18:255 -1:255 29 0] [0x2 2 1 [14 0] [20 4]] (REQUEST)
r 1.118487222 _3_ RTR  --- 0 AODV 48 [0 ffffffff 12 800] ------- [18:255 -1:255 29 0] [0x2 2 1 [14 0] [20 4]] (REQUEST)
r 1.118487222 _35_ RTR  --- 0 AODV 48 [0 ffffffff 12 800] ------- [18:255 -1:255 29 0] [0x2 2 1 [14 0] [20 4]] (REQUEST)
r 1.118487223 _1_ RTR  --- 0 AODV 48 [0 ffffffff 12 800] ------- [18:255 -1:255 29 0] [0x2 2 1 [14 0] [20 4]] (REQUEST)
r 1.118487223 _33_ RTR  --- 0 AODV 48 [0 ffffffff 12 800] ------- [18:255 -1:255 29 0] [0x2 2 1 [14 0] [20 4]] (REQUEST)
r 1.118487231 _13_ RTR  --- 0 AODV 48 [0 ffffffff 12 800] ------- [18:255 -1:255 29 0] [0x2 2 1 [14 0] [20 4]] (REQUEST)
r 1.118487231 _29_ RTR  --- 0 AODV 48 [0 ffffffff 12 800] ------- [18:255 -1:255 29 0] [0x2 2 1 [14 0] [20 4]] (REQUEST)
r 1.118487310 _4_ RTR  --- 0 AODV 48 [0 ffffffff 12 800] ------- [18:255 -1:255 29 0] [0x2 2 1 [14 0] [20 4]] (REQUEST)
r 1.118487310 _0_ RTR  --- 0 AODV 48 [0 ffffffff 12 800] ------- [18:255 -1:255 29 0] [0x2 2 1 [14 0] [20 4]] (REQUEST)
r 1.118487310 _32_ RTR  --- 0 AODV 48 [0 ffffffff 12 800] ------- [18:255 -1:255 29 0] [0x2 2 1 [14 0] [20 4]] (REQUEST)
r 1.118487310 _36_ RTR  --- 0 AODV 48 [0 ffffffff 12 800] ------- [18:255 -1:255 29 0] [0x2 2 1 [14 0] [20 4]] (REQUEST)
r 1.118487357 _22_ RTR  --- 0 AODV 48 [0 ffffffff 12 800] ------- [18:255 -1:255 29 0] [0x2 2 1 [14 0] [20 4]] (REQUEST)
r 1.120904716 _32_ RTR  --- 0 AODV 48 [0 ffffffff 21 800] ------- [33:255 -1:255 28 0] [0x2 3 1 [14 0] [20 4]] (REQUEST)
r 1.120904719 _34_ RTR  --- 0 AODV 48 [0 ffffffff 21 800] ------- [33:255 -1:255 28 0] [0x2 3 1 [14 0] [20 4]] (REQUEST)
r 1.120904843 _25_ RTR  --- 0 AODV 48 [0 ffffffff 21 800] ------- [33:255 -1:255 28 0] [0x2 3 1 [14 0] [20 4]] (REQUEST)
r 1.120904902 _24_ RTR  --- 0 AODV 48 [0 ffffffff 21 800] ------- [33:255 -1:255 28 0] [0x2 3 1 [14 0] [20 4]] (REQUEST)
s 1.120968120 _0_ RTR  --- 0 AODV 48 [0 ffffffff 9 800] ------- [0:255 -1:255 28 0] [0x2 3 1 [14 0] [20 4]] (REQUEST)
r 1.123130851 _29_ RTR  --- 0 AODV 48 [0 ffffffff 1c 800] ------- [28:255 -1:255 29 0] [0x2 2 1 [14 0] [20 4]] (REQUEST)
r 1.123130854 _27_ RTR  --- 0 AODV 48 [0 ffffffff 1c 800] ------- [28:255 -1:255 29 0] [0x2 2 1 [14 0] [20 4]] (REQUEST)
r 1.123130977 _20_ RTR  --- 0 AODV 48 [0 ffffffff 1c 800] ------- [28:255 -1:255 29 0] [0x2 2 1 [14 0] [20 4]] (REQUEST)
r 1.123130977 _36_ RTR  --- 0 AODV 48 [0 ffffffff 1c 800] ------- [28:255 -1:255 29 0] [0x2 2 1 [14 0] [20 4]] (REQUEST)
r 1.123131036 _21_ RTR  --- 0 AODV 48 [0 ffffffff 1c 800] ------- [28:255 -1:255 29 0] [0x2 2 1 [14 0] [20 4]] (REQUEST)
r 1.123131036 _37_ RTR  --- 0 AODV 48 [0 ffffffff 1c 800] ------- [28:255 -1:255 29 0] [0x2 2 1 [14 0] [20 4]] (REQUEST)
r 1.123131038 _19_ RTR  --- 0 AODV 48 [0 ffffffff 1c 800] ------- [28:255 -1:255 29 0] [0x2 2 1 [14 0] [20 4]] (REQUEST)
r 1.123131038 _35_ RTR  --- 0 AODV 48 [0 ffffffff 1c 800] ------- [28:255 -1:255 29 0] [0x2 2 1 [14 0] [20 4]] (REQUEST)
r 1.123131061 _26_ RTR  --- 0 AODV 48 [0 ffffffff 1c 800] ------- [28:255 -1:255 29 0] [0x2 2 1 [14 0] [20 4]] (REQUEST)
r 1.123131061 _30_ RTR  --- 0 AODV 48 [0 ffffffff 1c 800] ------- [28:255 -1:255 29 0] [0x2 2 1 [14 0] [20 4]] (REQUEST)
r 1.123131178 _22_ RTR  --- 0 AODV 48 [0 ffffffff 1c 800] ------- [28:255 -1:255 29 0] [0x2 2 1 [14 0] [20 4]] (REQUEST)
r 1.123131178 _18_ RTR  --- 0 AODV 48 [0 ffffffff 1c 800] ------- [28:255 -1:255 29 0] [0x2 2 1 [14 0] [20 4]] (REQUEST)
r 1.123131178 _34_ RTR  --- 0 AODV 48 [0 ffffffff 1c 800] ------- [28:255 -1:255 29 0] [0x2 2 1 [14 0] [20 4]] (REQUEST)
r 1.123131178 _38_ RTR  --- 0 AODV 48 [0 ffffffff 1c 800] ------- [28:255 -1:255 29 0] [0x2 2 1 [14 0] [20 4]] (REQUEST)
r 1.123131267 _31_ RTR  --- 0 AODV 48 [0 ffffffff 1c 800] ------- [28:255 -1:255 29 0] [0x2 2 1 [14 0] [20 4]] (REQUEST)
r 1.123131271 _25_ RTR  --- 0 AODV 48 [0 ffffffff 1c 800] ------- [28:255 -1:255 29 0] [0x2 2 1 [14 0] [20 4]] (REQUEST)
r 1.123131311 _12_ RTR  --- 0 AODV 48 [0 ffffffff 1c 800] ------- [28:255 -1:255 29 0] [0x2 2 1 [14 0] [20 4]] (REQUEST)
r 1.123131342 _13_ RTR  --- 0 AODV 48 [0 ffffffff 1c 800] ------- [28:255 -1:255 29 0] [0x2 2 1 [14 0] [20 4]] (REQUEST)
r 1.123131343 _11_ RTR  --- 0 AODV 48 [0 ffffffff 1c 800] ------- [28:255 -1:255 29 0] [0x2 2 1 [14 0] [20 4]] (REQUEST)
r 1.123131351 _23_ RTR  --- 0 AODV 48 [0 ffffffff 1c 800] ------- [28:255 -1:255 29 0] [0x2 2 1 [14 0] [20 4]] (REQUEST)
r 1.123131351 _39_ RTR  --- 0 AODV 48 [0 ffffffff 1c 800] ------- [28:255 -1:255 29 0] [0x2 2 1 [14 0] [20 4]] (REQUEST)
r 1.123131354 _17_ RTR  --- 0 AODV 48 [0 ffffffff 1c 800] ------- [28:255 -1:255 29 0] [0x2 2 1 [14 0] [20 4]] (REQUEST)
r 1.123131354 _33_ RTR  --- 0 AODV 48 [0 ffffffff 1c 800] ------- [28:255 -1:255 29 0] [0x2 2 1 [14 0] [20 4]] (REQUEST)
r 1.123131430 _14_ RTR  --- 0 AODV 48 [0 ffffffff 1c 800] ------- [28:255 -1:255 29 0] [0x2 2 1 [14 0] [20 4]] (REQUEST)
r 1.123131430 _10_ RTR  --- 0 AODV 48 [0 ffffffff 1c 800] ------- [28:255 -1:255 29 0] [0x2 2 1 [14 0] [20 4]] (REQUEST)
r 1.123131477 _24_ RTR  --- 0 AODV 48 [0 ffffffff 1c 800] ------- [28:255 -1:255 29 0] [0x2 2 1 [14 0] [20 4]] (REQUEST)
r 1.125658327 _1_ RTR  --- 0 AODV 48 [0 ffffffff 0 800] ------- [0:255 -1:255 28 0] [0x2 3 1 [14 0] [20 4]] (REQUEST)
r 1.125658454 _8_ RTR  --- 0 AODV 48 [0 ffffffff 0 800] ------- [0:255 -1:255 28 0] [0x2 3 1 [14 0] [20 4]] (REQUEST)
r 1.125658513 _9_ RTR  --- 0 AODV 48 [0 ffffffff 0 800] ------- [0:255 -1:255 28 0] [0x2 3 1 [14 0] [20 4]] (REQUEST)
r 1.125658537 _2_ RTR  --- 0 AODV 48 [0 ffffffff 0 800] ------- [0:255 -1:255 28 0] [0x2 3 1 [14 0] [20 4]] (REQUEST)
r 1.125658654 _10_ RTR  --- 0 AODV 48 [0 ffffffff 0 800] ------- [0:255 -1:255 28 0] [0x2 3 1 [14 0] [20 4]] (REQUEST)
r 1.125658744 _3_ RTR  --- 0 AODV 48 [0 ffffffff 0 800] ------- [0:255 -1:255 28 0] [0x2 3 1 [14 0] [20 4]] (REQUEST)
r 1.125658787 _16_ RTR  --- 0 AODV 48 [0 ffffffff 0 800] ------- [0:255 -1:255 28 0] [0x2 3 1 [14 0] [20 4]] (REQUEST)
r 1.125658818 _17_ RTR  --- 0 AODV 48 [0 ffffffff 0 800] ------- [0:255 -1:255 28 0] [0x2 3 1 [14 0] [20 4]] (REQUEST)
r 1.125658827 _11_ RTR  --- 0 AODV 48 [0 ffffffff 0 800] ------- [0:255 -1:255 28 0] [0x2 3 1 [14 0] [20 4]] (REQUEST)
r 1.125658907 _18_ RTR  --- 0 AODV 48 [0 ffffffff 0 800] ------- [0:255 -1:255 28 0] [0x2 3 1 [14 0] [20 4]] (REQUEST)
r 1.125658954 _4_ RTR  --- 0 AODV 48 [0 ffffffff 0 800] ------- [0:255 -1:255 28 0] [0x2 3 1 [14 0] [20 4]] (REQUEST)
r 1.128370090 _20_ RTR  --- 0 AODV 44 [0 14 e 800] ------- [14:255 20:255 30 20] [0x4 1 [14 4] 10.000000] (REPLY)
s 1.128370090 _20_ RTR  --- 0 tcp 40 [0 0 0 0] ------- [20:0 14:0 30 14] [0 0] 0 0
r 1.130689050 _38_ RTR  --- 0 AODV 48 [0 ffffffff 27 800] ------- [39:255 -1:255 28 0] [0x2 3 1 [14 0] [20 4]] (REQUEST)
r 1.130689176 _31_ RTR  --- 0 AODV 48 [0 ffffffff 27 800] ------- [39:255 -1:255 28 0] [0x2 3 1 [14 0] [20 4]] (REQUEST)
r 1.133123295 _0_ RTR  --- 0 AODV 48 [0 ffffffff 1 800] ------- [1:255 -1:255 28 0] [0x2 3 1 [14 0] [20 4]] (REQUEST)
r 1.133123299 _2_ RTR  --- 0 AODV 48 [0 ffffffff 1 800] ------- [1:255 -1:255 28 0] [0x2 3 1 [14 0] [20 4]] (REQUEST)
r 1.133123481 _8_ RTR  --- 0 AODV 48 [0 ffffffff 1 800] ------- [1:255 -1:255 28 0] [0x2 3 1 [14 0] [20 4]] (REQUEST)
r 1.133290563 _18_ RTR  --- 0 AODV 48 [0 ffffffff 13 800] ------- [19:255 -1:255 29 0] [0x2 2 1 [14 0] [20 4]] (REQUEST)
r 1.133290566 _20_ RTR  --- 0 AODV 48 [0 ffffffff 13 800] ------- [19:255 -1:255 29 0] [0x2 2 1 [14 0] [20 4]] (REQUEST)
r 1.133290690 _27_ RTR  --- 0 AODV 48 [0 ffffffff 13 800] ------- [19:255 -1:255 29 0] [0x2 2 1 [14 0] [20 4]] (REQUEST)
r 1.133290748 _26_ RTR  --- 0 AODV 48 [0 ffffffff 13 800] ------- [19:255 -1:255 29 0] [0x2 2 1 [14 0] [20 4]] (REQUEST)
r 1.133290750 _12_ RTR  --- 0 AODV 48 [0 ffffffff 13 800] ------- [19:255 -1:255 29 0] [0x2 2 1 [14 0] [20 4]] (REQUEST)