s 1.106011134 _24_ AGT  --- 0 tcp 40 [0 0 0 0] ------- [24:1 8:0 32 0] [0 0] 0 0
r 1.106011134 _24_ RTR  --- 0 tcp 40 [0 0 0 0] ------- [24:1 8:0 32 0] [0 0] 0 0
s 1.106011134 _24_ RTR  --- 0 AODV 48 [0 0 0 0] ------- [24:255 -1:255 30 0] [0x2 1 1 [8 0] [24 4]] (REQUEST)
r 1.109933340 _25_ RTR  --- 0 AODV 48 [0 ffffffff 18 800] ------- [24:255 -1:255 30 0] [0x2 1 1 [8 0] [24 4]] (REQUEST)
r 1.109933467 _16_ RTR  --- 0 AODV 48 [0 ffffffff 18 800] ------- [24:255 -1:255 30 0] [0x2 1 1 [8 0] [24 4]] (REQUEST)
r 1.109933467 _32_ RTR  --- 0 AODV 48 [0 ffffffff 18 800] ------- [24:255 -1:255 30 0] [0x2 1 1 [8 0] [24 4]] (REQUEST)
r 1.109933526 _17_ RTR  --- 0 AODV 48 [0 ffffffff 18 800] ------- [24:255 -1:255 30 0] [0x2 1 1 [8 0] [24 4]] (REQUEST)
r 1.109933526 _33_ RTR  --- 0 AODV 48 [0 ffffffff 18 800] ------- [24:255 -1:255 30 0] [0x2 1 1 [8 0] [24 4]] (REQUEST)
r 1.109933550 _26_ RTR  --- 0 AODV 48 [0 ffffffff 18 800] ------- [24:255 -1:255 30 0] [0x2 1 1 [8 0] [24 4]] (REQUEST)
r 1.109933667 _18_ RTR  --- 0 AODV 48 [0 ffffffff 18 800] ------- [24:255 -1:255 30 0] [0x2 1 1 [8 0] [24 4]] (REQUEST)
r 1.109933667 _34_ RTR  --- 0 AODV 48 [0 ffffffff 18 800] ------- [24:255 -1:255 30 0] [0x2 1 1 [8 0] [24 4]] (REQUEST)
r 1.109933757 _27_ RTR  --- 0 AODV 48 [0 ffffffff 18 800] ------- [24:255 -1:255 30 0] [0x2 1 1 [8 0] [24 4]] (REQUEST)
r 1.109933800 _8_ RTR  --- 0 AODV 48 [0 ffffffff 18 800] ------- [24:255 -1:255 30 0] [0x2 1 1 [8 0] [24 4]] (REQUEST)
s 1.109933800 _8_ RTR  --- 0 AODV 44 [0 0 0 0] ------- [8:255 24:255 30 24] [0x4 1 [8 4] 10.000000] (REPLY)
r 1.109933832 _9_ RTR  --- 0 AODV 48 [0 ffffffff 18 800] ------- [24:255 -1:255 30 0] [0x2 1 1 [8 0] [24 4]] (REQUEST)
r 1.109933840 _19_ RTR  --- 0 AODV 48 [0 ffffffff 18 800] ------- [24:255 -1:255 30 0] [0x2 1 1 [8 0] [24 4]] (REQUEST)
r 1.109933840 _35_ RTR  --- 0 AODV 48 [0 ffffffff 18 800] ------- [24:255 -1:255 30 0] [0x2 1 1 [8 0] [24 4]] (REQUEST)
r 1.109933920 _10_ RTR  --- 0 AODV 48 [0 ffffffff 18 800] ------- [24:255 -1:255 30 0] [0x2 1 1 [8 0] [24 4]] (REQUEST)
r 1.109933967 _28_ RTR  --- 0 AODV 48 [0 ffffffff 18 800] ------- [24:255 -1:255 30 0] [0x2 1 1 [8 0] [24 4]] (REQUEST)
s 1.110328867 _9_ RTR  --- 0 AODV 48 [0 ffffffff 18 800] ------- [9:255 -1:255 29 0] [0x2 2 1 [8 0] [24 4]] (REQUEST)
s 1.110578557 _18_ RTR  --- 0 AODV 48 [0 ffffffff 18 800] ------- [18:255 -1:255 29 0] [0x2 2 1 [8 0] [24 4]] (REQUEST)
s 1.111518663 _33_ RTR  --- 0 AODV 48 [0 ffffffff 18 800] ------- [33:255 -1:255 29 0] [0x2 2 1 [8 0] [24 4]] (REQUEST)
s 1.111700515 _34_ RTR  --- 0 AODV 48 [0 ffffffff 18 800] ------- [34:255 -1:255 29 0] [0x2 2 1 [8 0] [24 4]] (REQUEST)
s 1.112202227 _10_ RTR  --- 0 AODV 48 [0 ffffffff 18 800] ------- [10:255 -1:255 29 0] [0x2 2 1 [8 0] [24 4]] (REQUEST)
s 1.112288957 _26_ RTR  --- 0 AODV 48 [0 ffffffff 18 800] ------- [26:255 -1:255 29 0] [0x2 2 1 [8 0] [24 4]] (REQUEST)
s 1.114781081 _25_ RTR  --- 0 AODV 48 [0 ffffffff 18 800] ------- [25:255 -1:255 29 0] [0x2 2 1 [8 0] [24 4]] (REQUEST)
s 1.115718853 _19_ RTR  --- 0 AODV 48 [0 ffffffff 18 800] ------- [19:255 -1:255 29 0] [0x2 2 1 [8 0] [24 4]] (REQUEST)
r 1.116124433 _11_ RTR  --- 0 AODV 48 [0 ffffffff a 800] ------- [10:255 -1:255 29 0] [0x2 2 1 [8 0] [24 4]] (REQUEST)
r 1.116124437 _9_ RTR  --- 0 AODV 48 [0 ffffffff a 800] ------- [10:255 -1:255 29 0] [0x2 2 1 [8 0] [24 4]] (REQUEST)
r 1.116124560 _2_ RTR  --- 0 AODV 48 [0 ffffffff a 800] ------- [10:255 -1:255 29 0] [0x2 2 1 [8 0] [24 4]] (REQUEST)
r 1.116124560 _18_ RTR  --- 0 AODV 48 [0 ffffffff a 800] ------- [10:255 -1:255 29 0] [0x2 2 1 [8 0] [24 4]] (REQUEST)
r 1.116124619 _3_ RTR  --- 0 AODV 48 [0 ffffffff a 800] ------- [10:255 -1:255 29 0] [0x2 2 1 [8 0] [24 4]] (REQUEST)
r 1.116124619 _19_ RTR  --- 0 AODV 48 [0 ffffffff a 800] ------- [10:255 -1:255 29 0] [0x2 2 1 [8 0] [24 4]] (REQUEST)
r 1.116124621 _1_ RTR  --- 0 AODV 48 [0 ffffffff a 800] ------- [10:255 -1:255 29 0] [0x2 2 1 [8 0] [24 4]] (REQUEST)
r 1.116124621 _17_ RTR  --- 0 AODV 48 [0 ffffffff a 800] ------- [10:255 -1:255 29 0] [0x2 2 1 [8 0] [24 4]] (REQUEST)
r 1.116124643 _8_ RTR  --- 0 AODV 48 [0 ffffffff a 800] ------- [10:255 -1:255 29 0] [0x2 2 1 [8 0] [24 4]] (REQUEST)
r 1.116124643 _12_ RTR  --- 0 AODV 48 [0 ffffffff a 800] ------- [10:255 -1:255 29 0] [0x2 2 1 [8 0] [24 4]] (REQUEST)
r 1.116124760 _4_ RTR  --- 0 AODV 48 [0 ffffffff a 800] ------- [10:255 -1:255 29 0] [0x2 2 1 [8 0] [24 4]] (REQUEST)
r 1.116124760 _0_ RTR  --- 0 AODV 48 [0 ffffffff a 800] ------- [10:255 -1:255 29 0] [0x2 2 1 [8 0] [24 4]] (REQUEST)
r 1.116124760 _16_ RTR  --- 0 AODV 48 [0 ffffffff a 800] ------- [10:255 -1:255 29 0] [0x2 2 1 [8 0] [24 4]] (REQUEST)
r 1.116124760 _20_ RTR  --- 0 AODV 48 [0 ffffffff a 800] ------- [10:255 -1:255 29 0] [0x2 2 1 [8 0] [24 4]] (REQUEST)
r 1.116124850 _13_ RTR  --- 0 AODV 48 [0 ffffffff a 800] ------- [10:255 -1:255 29 0] [0x2 2 1 [8 0] [24 4]] (REQUEST)
r 1.116124893 _26_ RTR  --- 0 AODV 48 [0 ffffffff a 800] ------- [10:255 -1:255 29 0] [0x2 2 1 [8 0] [24 4]] (REQUEST)
r 1.116124925 _27_ RTR  --- 0 AODV 48 [0 ffffffff a 800] ------- [10:255 -1:255 29 0] [0x2 2 1 [8 0] [24 4]] (REQUEST)
r 1.116124926 _25_ RTR  --- 0 AODV 48 [0 ffffffff a 800] ------- [10:255 -1:255 29 0] [0x2 2 1 [8 0] [24 4]] (REQUEST)
r 1.116124934 _5_ RTR  --- 0 AODV 48 [0 ffffffff a 800] ------- [10:255 -1:255 29 0] [0x2 2 1 [8 0] [24 4]] (REQUEST)
r 1.116124934 _21_ RTR  --- 0 AODV 48 [0 ffffffff a 800] ------- [10:255 -1:255 29 0] [0x2 2 1 [8 0] [24 4]] (REQUEST)
r 1.116125013 _24_ RTR  --- 0 AODV 48 [0 ffffffff a 800] ------- [10:255 -1:255 29 0] [0x2 2 1 [8 0] [24 4]] (REQUEST)
r 1.116125013 _28_ RTR  --- 0 AODV 48 [0 ffffffff a 800] ------- [10:255 -1:255 29 0] [0x2 2 1 [8 0] [24 4]] (REQUEST)
r 1.116125060 _14_ RTR  --- 0 AODV 48 [0 ffffffff a 800] ------- [10:255 -1:255 29 0] [0x2 2 1 [8 0] [24 4]] (REQUEST)
s 1.116162366 _32_ RTR  --- 0 AODV 48 [0 ffffffff 18 800] ------- [32:255 -1:255 29 0] [0x2 2 1 [8 0] [24 4]] (REQUEST)
s 1.116995922 _35_ RTR  --- 0 AODV 48 [0 ffffffff 18 800] ------- [35:255 -1:255 29 0] [0x2 2 1 [8 0] [24 4]] (REQUEST)
s 1.117743409 _13_ RTR  --- 0 AODV 48 [0 ffffffff a 800] ------- [13:255 -1:255 28 0] [0x2 3 1 [8 0] [24 4]] (REQUEST)
s 1.118183585 _4_ RTR  --- 0 AODV 48 [0 ffffffff a 800] ------- [4:255 -1:255 28 0] [0x2 3 1 [8 0] [24 4]] (REQUEST)
s 1.118236380 _28_ RTR  --- 0 AODV 48 [0 ffffffff 18 800] ------- [28:255 -1:255 29 0] [0x2 2 1 [8 0] [24 4]] (REQUEST)
s 1.118441354 _17_ RTR  --- 0 AODV 48 [0 ffffffff 18 800] ------- [17:255 -1:255 29 0] [0x2 2 1 [8 0] [24 4]] (REQUEST)
r 1.118448870 _32_ RTR  --- 0 AODV 48 [0 ffffffff 21 800] ------- [33:255 -1:255 29 0] [0x2 2 1 [8 0] [24 4]] (REQUEST)
r 1.118448873 _34_ RTR  --- 0 AODV 48 [0 ffffffff 21 800] ------- [33:255 -1:255 29 0] [0x2 2 1 [8 0] [24 4]] (REQUEST)
r 1.118448996 _25_ RTR  --- 0 AODV 48 [0 ffffffff 21 800] ------- [33:255 -1:255 29 0] [0x2 2 1 [8 0] [24 4]] (REQUEST)
r 1.118449055 _24_ RTR  --- 0 AODV 48 [0 ffffffff 21 800] ------- [33:255 -1:255 29 0] [0x2 2 1 [8 0] [24 4]] (REQUEST)
r 1.118449057 _26_ RTR  --- 0 AODV 48 [0 ffffffff 21 800] ------- [33:255 -1:255 29 0] [0x2 2 1 [8 0] [24 4]] (REQUEST)
r 1.118449080 _35_ RTR  --- 0 AODV 48 [0 ffffffff 21 800] ------- [33:255 -1:255 29 0] [0x2 2 1 [8 0] [24 4]] (REQUEST)
r 1.118449197 _27_ RTR  --- 0 AODV 48 [0 ffffffff 21 800] ------- [33:255 -1:255 29 0] [0x2 2 1 [8 0] [24 4]] (REQUEST)
r 1.118449290 _36_ RTR  --- 0 AODV 48 [0 ffffffff 21 800] ------- [33:255 -1:255 29 0] [0x2 2 1 [8 0] [24 4]] (REQUEST)
r 1.118449330 _17_ RTR  --- 0 AODV 48 [0 ffffffff 21 800] ------- [33:255 -1:255 29 0] [0x2 2 1 [8 0] [24 4]] (REQUEST)
r 1.118449361 _16_ RTR  --- 0 AODV 48 [0 ffffffff 21 800] ------- [33:255 -1:255 29 0] [0x2 2 1 [8 0] [24 4]] (REQUEST)
r 1.118449362 _18_ RTR  --- 0 AODV 48 [0 ffffffff 21 800] ------- [33:255 -1:255 29 0] [0x2 2 1 [8 0] [24 4]] (REQUEST)
r 1.118449373 _28_ RTR  --- 0 AODV 48 [0 ffffffff 21 800] ------- [33:255 -1:255 29 0] [0x2 2 1 [8 0] [24 4]] (REQUEST)
r 1.118449449 _19_ RTR  --- 0 AODV 48 [0 ffffffff 21 800] ------- [33:255 -1:255 29 0] [0x2 2 1 [8 0] [24 4]] (REQUEST)
r 1.118449496 _37_ RTR  --- 0 AODV 48 [0 ffffffff 21 800] ------- [33:255 -1:255 29 0] [0x2 2 1 [8 0] [24 4]] (REQUEST)
s 1.118647205 _27_ RTR  --- 0 AODV 48 [0 ffffffff 18 800] ------- [27:255 -1:255 29 0] [0x2 2 1 [8 0] [24 4]] (REQUEST)
s 1.118753228 _3_ RTR  --- 0 AODV 48 [0 ffffffff a 800] ------- [3:255 -1:255 28 0] [0x2 3 1 [8 0] [24 4]] (REQUEST)
s 1.118772417 _5_ RTR  --- 0 AODV 48 [0 ffffffff a 800] ------- [5:255 -1:255 28 0] [0x2 3 1 [8 0] [24 4]] (REQUEST)
s 1.118901476 _16_ RTR  --- 0 AODV 48 [0 ffffffff 18 800] ------- [16:255 -1:255 29 0] [0x2 2 1 [8 0] [24 4]] (REQUEST)
s 1.119002962 _37_ RTR  --- 0 AODV 48 [0 ffffffff 21 800] ------- [37:255 -1:255 28 0] [0x2 3 1 [8 0] [24 4]] (REQUEST)
s 1.119911307 _21_ RTR  --- 0 AODV 48 [0 ffffffff a 800] ------- [21:255 -1:255 28 0] [0x2 3 1 [8 0] [24 4]] (REQUEST)
s 1.120592663 _36_ RTR  --- 0 AODV 48 [0 ffffffff 21 800] ------- [36:255 -1:255 28 0] [0x2 3 1 [8 0] [24 4]] (REQUEST)
s 1.120919782 _1_ RTR  --- 0 AODV 48 [0 ffffffff a 800] ------- [1:255 -1:255 28 0] [0x2 3 1 [8 0] [24 4]] (REQUEST)
r 1.121345616 _12_ RTR  --- 0 AODV 48 [0 ffffffff d 800] ------- [13:255 -1:255 28 0] [0x2 3 1 [8 0] [24 4]] (REQUEST)
r 1.121345619 _14_ RTR  --- 0 AODV 48 [0 ffffffff d 800] ------- [13:255 -1:255 28 0] [0x2 3 1 [8 0] [24 4]] (REQUEST)
r 1.121345743 _5_ RTR  --- 0 AODV 48 [0 ffffffff d 800] ------- [13:255 -1:255 28 0] [0x2 3 1 [8 0] [24 4]] (REQUEST)
r 1.121345801 _4_ RTR  --- 0 AODV 48 [0 ffffffff d 800] ------- [13:255 -1:255 28 0] [0x2 3 1 [8 0] [24 4]] (REQUEST)
r 1.121345803 _6_ RTR  --- 0 AODV 48 [0 ffffffff d 800] ------- [13:255 -1:255 28 0] [0x2 3 1 [8 0] [24 4]] (REQUEST)
r 1.121345826 _15_ RTR  --- 0 AODV 48 [0 ffffffff d 800] ------- [13:255 -1:255 28 0] [0x2 3 1 [8 0] [24 4]] (REQUEST)
r 1.121345943 _7_ RTR  --- 0 AODV 48 [0 ffffffff d 800] ------- [13:255 -1:255 28 0] [0x2 3 1 [8 0] [24 4]] (REQUEST)
r 1.121518587 _29_ RTR  --- 0 AODV 48 [0 ffffffff 1c 800] ------- [28:255 -1:255 29 0] [0x2 2 1 [8 0] [24 4]] (REQUEST)
s 1.122242342 _14_ RTR  --- 0 AODV 48 [0 ffffffff a 800] ------- [14:255 -1:255 28 0] [0x2 3 1 [8 0] [24 4]] (REQUEST)
s 1.122697325 _20_ RTR  --- 0 AODV 48 [0 ffffffff a 800] ------- [20:255 -1:255 28 0] [0x2 3 1 [8 0] [24 4]] (REQUEST)
s 1.122878536 _0_ RTR  --- 0 AODV 48 [0 ffffffff a 800] ------- [0:255 -1:255 28 0] [0x2 3 1 [8 0] [24 4]] (REQUEST)
s 1.123422434 _2_ RTR  --- 0 AODV 48 [0 ffffffff a 800] ------- [2:255 -1:255 28 0] [0x2 3 1 [8 0] [24 4]] (REQUEST)
s 1.123621575 _12_ RTR  --- 0 AODV 48 [0 ffffffff a 800] ------- [12:255 -1:255 28 0] [0x2 3 1 [8 0] [24 4]] (REQUEST)
r 1.123874870 _37_ RTR  --- 0 AODV 48 [0 ffffffff 24 800] ------- [36:255 -1:255 28 0] [0x2 3 1 [8 0] [24 4]] (REQUEST)
r 1.123977412 _26_ RTR  --- 0 AODV 48 [0 ffffffff 1b 800] ------- [27:255 -1:255 29 0] [0x2 2 1 [8 0] [24 4]] (REQUEST)
s 1.124598073 _29_ RTR  --- 0 AODV 48 [0 ffffffff 1c 800] ------- [29:255 -1:255 28 0] [0x2 3 1 [8 0] [24 4]] (REQUEST)
s 1.124934229 _11_ RTR  --- 0 AODV 48 [0 ffffffff a 800] ------- [11:255 -1:255 28 0] [0x2 3 1 [8 0] [24 4]] (REQUEST)
s 1.125664636 _15_ RTR  --- 0 AODV 48 [0 ffffffff d 800] ------- [15:255 -1:255 27 0] [0x2 4 1 [8 0] [24 4]] (REQUEST)
s 1.126220372 _7_ RTR  --- 0 AODV 48 [0 ffffffff d 800] ------- [7:255 -1:255 27 0] [0x2 4 1 [8 0] [24 4]] (REQUEST)
s 1.126405439 _37_ AGT  --- 1 tcp 40 [0 0 0 0] ------- [37:0 15:0 32 0] [0 0] 0 0
r 1.126405439 _37_ RTR  --- 1 tcp 40 [0 0 0 0] ------- [37:0 15:0 32 0] [0 0] 0 0
s 1.126405439 _37_ RTR  --- 0 AODV 48 [0 0 0 0] ------- [37:255 -1:255 30 0] [0x2 1 1 [15 0] [37 4]] (REQUEST)
r 1.126651560 _16_ RTR  --- 0 AODV 48 [0 ffffffff 11 800] ------- [17:255 -1:255 29 0] [0x2 2 1 [8 0] [24 4]] (REQUEST)
r 1.126651564 _18_ RTR  --- 0 AODV 48 [0 ffffffff 11 800] ------- [17:255 -1:255 29 0] [0x2 2 1 [8 0] [24 4]] (REQUEST)
r 1.126651687 _9_ RTR  --- 0 AODV 48 [0 ffffffff 11 800] ------- [17:255 -1:255 29 0] [0x2 2 1 [8 0] [24 4]] (REQUEST)
r 1.126651687 _25_ RTR  --- 0 AODV 48 [0 ffffffff 11 800] ------- [17:255 -1:255 29 0] [0x2 2 1 [8 0] [24 4]] (REQUEST)
r 1.126651746 _8_ RTR  --- 0 AODV 48 [0 ffffffff 11 800] ------- [17:255 -1:255 29 0] [0x2 2 1 [8 0] [24 4]] (REQUEST)
r 1.126651746 _24_ RTR  --- 0 AODV 48 [0 ffffffff 11 800] ------- [17:255 -1:255 29 0] [0x2 2 1 [8 0] [24 4]] (REQUEST)
r 1.126651748 _10_ RTR  --- 0 AODV 48 [0 ffffffff 11 800] ------- [17:255 -1:255 29 0] [0x2 2 1 [8 0] [24 4]] (REQUEST)
r 1.126651748 _26_ RTR  --- 0 AODV 48 [0 ffffffff 11 800] ------- [17:255 -1:255 29 0] [0x2 2 1 [8 0] [24 4]] (REQUEST)
r 1.126651770 _19_ RTR  --- 0 AODV 48 [0 ffffffff 11 800] ------- [17:255 -1:255 29 0] [0x2 2 1 [8 0] [24 4]] (REQUEST)
r 1.126651887 _11_ RTR  --- 0 AODV 48 [0 ffffffff 11 800] ------- [17:255 -1:255 29 0] [0x2 2 1 [8 0] [24 4]] (REQUEST)
r 1.126651887 _27_ RTR  --- 0 AODV 48 [0 ffffffff 11 800] ------- [17:255 -1:255 29 0] [0x2 2 1 [8 0] [24 4]] (REQUEST)
r 1.126651980 _20_ RTR  --- 0 AODV 48 [0 ffffffff 11 800] ------- [17:255 -1:255 29 0] [0x2 2 1 [8 0] [24 4]] (REQUEST)
r 1.126652020 _1_ RTR  --- 0 AODV 48 [0 ffffffff 11 800] ------- [17:255 -1:255 29 0] [0x2 2 1 [8 0] [24 4]] (REQUEST)
r 1.126652020 _33_ RTR  --- 0 AODV 48 [0 ffffffff 11 800] ------- [17:255 -1:255 29 0] [0x2 2 1 [8 0] [24 4]] (REQUEST)
r 1.126652052 _0_ RTR  --- 0 AODV 48 [0 ffffffff 11 800] ------- [17:255 -1:255 29 0] [0x2 2 1 [8 0] [24 4]] (REQUEST)
r 1.126652052 _32_ RTR  --- 0 AODV 48 [0 ffffffff 11 800] ------- [17:255 -1:255 29 0] [0x2 2 1 [8 0] [24 4]] (REQUEST)
r 1.126652053 _2_ RTR  --- 0 AODV 48 [0 ffffffff 11 800] ------- [17:255 -1:255 29 0] [0x2 2 1 [8 0] [24 4]] (REQUEST)
r 1.126652053 _34_ RTR  --- 0 AODV 48 [0 ffffffff 11 800] ------- [17:255 -1:255 29 0] [0x2 2 1 [8 0] [24 4]] (REQUEST)
r 1.126652064 _12_ RTR  --- 0 AODV 48 [0 ffffffff 11 800] ------- [17:255 -1:255 29 0] [0x2 2 1 [8 0] [24 4]] (REQUEST)
r 1.126652064 _28_ RTR  --- 0 AODV 48 [0 ffffffff 11 800] ------- [17:255 -1:255 29 0] [0x2 2 1 [8 0] [24 4]] (REQUEST)
r 1.126652140 _3_ RTR  --- 0 AODV 48 [0 ffffffff 11 800] ------- [17:255 -1:255 29 0] [0x2 2 1 [8 0] [24 4]] (REQUEST)
r 1.126652140 _35_ RTR  --- 0 AODV 48 [0 ffffffff 11 800] ------- [17:255 -1:255 29 0] [0x2 2 1 [8 0] [24 4]] (REQUEST)
r 1.126652187 _21_ RTR  --- 0 AODV 48 [0 ffffffff 11 800] ------- [17:255 -1:255 29 0] [0x2 2 1 [8 0] [24 4]] (REQUEST)
s 1.127838335 _29_ AGT  --- 2 tcp 40 [0 0 0 0] ------- [29:0 1:0 32 0] [0 0] 0 0
r 1.127838335 _29_ RTR  --- 2 tcp 40 [0 0 0 0] ------- [29:0 1:0 32 0] [0 0] 0 0
s 1.127838335 _29_ RTR  --- 0 AODV 48 [0 0 0 0] ------- [29:255 -1:255 30 0] [0x2 1 1 [1 0] [29 4]] (REQUEST)
s 1.128387445 _6_ RTR  --- 0 AODV 48 [0 ffffffff d 800] ------- [6:255 -1:255 27 0] [0x2 4 1 [8 0] [24 4]] (REQUEST)
r 1.128880641 _3_ RTR  --- 0 AODV 48 [0 ffffffff 2 800] ------- [2:255 -1:255 28 0] [0x2 3 1 [8 0] [24 4]] (REQUEST)
r 1.128880644 _1_ RTR  --- 0 AODV 48 [0 ffffffff 2 800] ------- [2:255 -1:255 28 0] [0x2 3 1 [8 0] [24 4]] (REQUEST)
r 1.128880767 _10_ RTR  --- 0 AODV 48 [0 ffffffff 2 800] ------- [2:255 -1:255 28 0] [0x2 3 1 [8 0] [24 4]] (REQUEST)
r 1.128880826 _11_ RTR  --- 0 AODV 48 [0 ffffffff 2 800] ------- [2:255 -1:255 28 0] [0x2 3 1 [8 0] [24 4]] (REQUEST)
r 1.128880828 _9_ RTR  --- 0 AODV 48 [0 ffffffff 2 800] ------- [2:255 -1:255 28 0] [0x2 3 1 [8 0] [24 4]] (REQUEST)
r 1.128880851 _0_ RTR  --- 0 AODV 48 [0 ffffffff 2 800] ------- [2:255 -1:255 28 0] [0x2 3 1 [8 0] [24 4]] (REQUEST)
r 1.128880851 _4_ RTR  --- 0 AODV 48 [0 ffffffff 2 800] ------- [2:255 -1:255 28 0] [0x2 3 1 [8 0] [24 4]] (REQUEST)
r 1.128880968 _8_ RTR  --- 0 AODV 48 [0 ffffffff 2 800] ------- [2:255 -1:255 28 0] [0x2 3 1 [8 0] [24 4]] (REQUEST)
r 1.128880968 _12_ RTR  --- 0 AODV 48 [0 ffffffff 2 800] ------- [2:255 -1:255 28 0] [0x2 3 1 [8 0] [24 4]] (REQUEST)
r 1.128881057 _5_ RTR  --- 0 AODV 48 [0 ffffffff 2 800] ------- [2:255 -1:255 28 0] [0x2 3 1 [8 0] [24 4]] (REQUEST)
r 1.128881101 _18_ RTR  --- 0 AODV 48 [0 ffffffff 2 800] ------- [2:255 -1:255 28 0] [0x2 3 1 [8 0] [24 4]] (REQUEST)
r 1.128881132 _19_ RTR  --- 0 AODV 48 [0 ffffffff 2 800] ------- [2:255 -1:255 28 0] [0x2 3 1 [8 0] [24 4]] (REQUEST)
r 1.128881133 _17_ RTR  --- 0 AODV 48 [0 ffffffff 2 800] ------- [2:255 -1:255 28 0] [0x2 3 1 [8 0] [24 4]] (REQUEST)
r 1.128881141 _13_ RTR  --- 0 AODV 48 [0 ffffffff 2 800] ------- [2:255 -1:255 28 0] [0x2 3 1 [8 0] [24 4]] (REQUEST)
r 1.128881220 _16_ RTR  --- 0 AODV 48 [0 ffffffff 2 800] ------- [2:255 -1:255 28 0] [0x2 3 1 [8 0] [24 4]] (REQUEST)
r 1.128881220 _20_ RTR  --- 0 AODV 48 [0 ffffffff 2 800] ------- [2:255 -1:255 28 0] [0x2 3 1 [8 0] [24 4]] (REQUEST)
r 1.128881267 _6_ RTR  --- 0 AODV 48 [0 ffffffff 2 800] ------- [2:255 -1:255 28 0] [0x2 3 1 [8 0] [24 4]] (REQUEST)
r 1.131191785 _11_ RTR  --- 0 AODV 48 [0 ffffffff c 800] ------- [12:255 -1:255 28 0] [0x2 3 1 [8 0] [24 4]] (REQUEST)
r 1.131191909 _4_ RTR  --- 0 AODV 48 [0 ffffffff c 800] ------- [12:255 -1:255 28 0] [0x2 3 1 [8 0] [24 4]] (REQUEST)
r 1.131191909 _20_ RTR  --- 0 AODV 48 [0 ffffffff c 800] ------- [12:255 -1:255 28 0] [0x2 3 1 [8 0] [24 4]] (REQUEST)
r 1.131191969 _3_ RTR  --- 0 AODV 48 [0 ffffffff c 800] ------- [12:255 -1:255 28 0] [0x2 3 1 [8 0] [24 4]] (REQUEST)
r 1.131191969 _19_ RTR  --- 0 AODV 48 [0 ffffffff c 800] ------- [12:255 -1:255 28 0] [0x2 3 1 [8 0] [24 4]] (REQUEST)
r 1.131191992 _10_ RTR  --- 0 AODV 48 [0 ffffffff c 800] ------- [12:255 -1:255 28 0] [0x2 3 1 [8 0] [24 4]] (REQUEST)
r 1.131192109 _2_ RTR  --- 0 AODV 48 [0 ffffffff c 800] ------- [12:255 -1:255 28 0] [0x2 3 1 [8 0] [24 4]] (REQUEST)
r 1.131192109 _18_ RTR  --- 0 AODV 48 [0 ffffffff c 800] ------- [12:255 -1:255 28 0] [0x2 3 1 [8 0] [24 4]] (REQUEST)
r 1.131192202 _9_ RTR  --- 0 AODV 48 [0 ffffffff c 800] ------- [12:255 -1:255 28 0] [0x2 3 1 [8 0] [24 4]] (REQUEST)
r 1.131192285 _1_ RTR  --- 0 AODV 48 [0 ffffffff c 800] ------- [12:255 -1:255 28 0] [0x2 3 1 [8 0] [24 4]] (REQUEST)
r 1.131192285 _17_ RTR  --- 0 AODV 48 [0 ffffffff c 800] ------- [12:255 -1:255 28 0] [0x2 3 1 [8 0] [24 4]] (REQUEST)
r 1.131314970 _7_ RTR  --- 0 AODV 48 [0 ffffffff f 800] ------- [15:255 -1:255 27 0] [0x2 4 1 [8 0] [24 4]] (REQUEST)
r 1.131314970 _23_ RTR  --- 0 AODV 48 [0 ffffffff f 800] ------- [15:255 -1:255 27 0] [0x2 4 1 [8 0] [24 4]] (REQUEST)
s 1.133802757 _23_ RTR  --- 0 AODV 48 [0 ffffffff f 800] ------- [23:255 -1:255 26 0] [0x2 5 1 [8 0] [24 4]] (REQUEST)
r 1.134037651 _7_ RTR  --- 0 AODV 48 [0 ffffffff 6 800] ------- [6:255 -1:255 27 0] [0x2 4 1 [8 0] [24 4]] (REQUEST)
r 1.134037655 _5_ RTR  --- 0 AODV 48 [0 ffffffff 6 800] ------- [6:255 -1:255 27 0] [0x2 4 1 [8 0] [24 4]] (REQUEST)
r 1.134037778 _14_ RTR  --- 0 AODV 48 [0 ffffffff 6 800] ------- [6:255 -1:255 27 0] [0x2 4 1 [8 0] [24 4]] (REQUEST)
r 1.134037837 _15_ RTR  --- 0 AODV 48 [0 ffffffff 6 800] ------- [6:255 -1:255 27 0] [0x2 4 1 [8 0] [24 4]] (REQUEST)
r 1.134037839 _13_ RTR  --- 0 AODV 48 [0 ffffffff 6 800] ------- [6:255 -1:255 27 0] [0x2 4 1 [8 0] [24 4]] (REQUEST)
r 1.134037861 _4_ RTR  --- 0 AODV 48 [0 ffffffff 6 800] ------- [6:255 -1:255 27 0] [0x2 4 1 [8 0] [24 4]] (REQUEST)
r 1.134038143 _23_ RTR  --- 0 AODV 48 [0 ffffffff 6 800] ------- [6:255 -1:255 27 0] [0x2 4 1 [8 0] [24 4]] (REQUEST)
r 1.134224742 _1_ RTR  --- 0 AODV 48 [0 ffffffff 0 800] ------- [0:255 -1:255 28 0] [0x2 3 1 [8 0] [24 4]] (REQUEST)
r 1.134279682 _17_ RTR  --- 0 AODV 48 [0 ffffffff 10 800] ------- [16:255 -1:255 29 0] [0x2 2 1 [8 0] [24 4]] (REQUEST)
r 1.134279809 _24_ RTR  --- 0 AODV 48 [0 ffffffff 10 800] ------- [16:255 -1:255 29 0] [0x2 2 1 [8 0] [24 4]] (REQUEST)
r 1.134279868 _25_ RTR  --- 0 AODV 48 [0 ffffffff 10 800] ------- [16:255 -1:255 29 0] [0x2 2 1 [8 0] [24 4]] (REQUEST)
r 1.134280009 _26_ RTR  --- 0 AODV 48 [0 ffffffff 10 800] ------- [16:255 -1:255 29 0] [0x2 2 1 [8 0] [24 4]] (REQUEST)
r 1.134280142 _32_ RTR  --- 0 AODV 48 [0 ffffffff 10 800] ------- [16:255 -1:255 29 0] [0x2 2 1 [8 0] [24 4]] (REQUEST)
r 1.137901169 _36_ RTR  --- 0 AODV 48 [0 ffffffff 25 800] ------- [37:255 -1:255 28 0] [0x2 3 1 [8 0] [24 4]] (REQUEST)
r 1.137901172 _38_ RTR  --- 0 AODV 48 [0 ffffffff 25 800] ------- [37:255 -1:255 28 0] [0x2 3 1 [8 0] [24 4]] (REQUEST)
r 1.137901296 _29_ RTR  --- 0 AODV 48 [0 ffffffff 25 800] ------- [37:255 -1:255 28 0] [0x2 3 1 [8 0] [24 4]] (REQUEST)
r 1.137901355 _28_ RTR  --- 0 AODV 48 [0 ffffffff 25 800] ------- [37:255 -1:255 28 0] [0x2 3 1 [8 0] [24 4]] (REQUEST)
r 1.137901356 _30_ RTR  --- 0 AODV 48 [0 ffffffff 25 800] ------- [37:255 -1:255 28 0] [0x2 3 1 [8 0] [24 4]] (REQUEST)
r 1.137901379 _35_ RTR  --- 0 AODV 48 [0 ffffffff 25 800] ------- [37:255 -1:255 28 0] [0x2 3 1 [8 0] [24 4]] (REQUEST)
r 1.137901379 _39_ RTR  --- 0 AODV 48 [0 ffffffff 25 800] ------- [37:255 -1:255 28 0] [0x2 3 1 [8 0] [24 4]] (REQUEST)
r 1.137901496 _31_ RTR  --- 0 AODV 48 [0 ffffffff 25 800] ------- [37:255 -1:255 28 0] [0x2 3 1 [8 0] [24 4]] (REQUEST)
r 1.137901496 _27_ RTR  --- 0 AODV 48 [0 ffffffff 25 800] ------- [37:255 -1:255 28 0] [0x2 3 1 [8 0] [24 4]] (REQUEST)
r 1.137901586 _34_ RTR  --- 0 AODV 48 [0 ffffffff 25 800] ------- [37:255 -1:255 28 0] [0x2 3 1 [8 0] [24 4]] (REQUEST)
r 1.137901629 _21_ RTR  --- 0 AODV 48 [0 ffffffff 25 800] ------- [37:255 -1:255 28 0] [0x2 3 1 [8 0] [24 4]] (REQUEST)
r 1.137901660 _20_ RTR  --- 0 AODV 48 [0 ffffffff 25 800] ------- [37:255 -1:255 28 0] [0x2 3 1 [8 0] [24 4]] (REQUEST)
r 1.137901661 _22_ RTR  --- 0 AODV 48 [0 ffffffff 25 800] ------- [37:255 -1:255 28 0] [0x2 3 1 [8 0] [24 4]] (REQUEST)
r 1.137901669 _26_ RTR  --- 0 AODV 48 [0 ffffffff 25 800] ------- [37:255 -1:255 28 0] [0x2 3 1 [8 0] [24 4]] (REQUEST)
r 1.137901749 _23_ RTR  --- 0 AODV 48 [0 ffffffff 25 800] ------- [37:255 -1:255 28 0] [0x2 3 1 [8 0] [24 4]] (REQUEST)
r 1.137901749 _19_ RTR  --- 0 AODV 48 [0 ffffffff 25 800] ------- [37:255 -1:255 28 0] [0x2 3 1 [8 0] [24 4]] (REQUEST)
r 1.137901796 _33_ RTR  --- 0 AODV 48 [0 ffffffff 25 800] ------- [37:255 -1:255 28 0] [0x2 3 1 [8 0] [24 4]] (REQUEST)
s 1.140586951 _38_ RTR  --- 0 AODV 48 [0 ffffffff 25 800] ------- [38:255 -1:255 27 0] [0x2 4 1 [8 0] [24 4]] (REQUEST)
r 1.140668963 _22_ RTR  --- 0 AODV 48 [0 ffffffff 17 800] ------- [23:255 -1:255 26 0] [0x2 5 1 [8 0] [24 4]] (REQUEST)
r 1.140669090 _15_ RTR  --- 0 AODV 48 [0 ffffffff 17 800] ------- [23:255 -1:255 26 0] [0x2 5 1 [8 0] [24 4]] (REQUEST)
r 1.140669090 _31_ RTR  --- 0 AODV 48 [0 ffffffff 17 800] ------- [23:255 -1:255 26 0] [0x2 5 1 [8 0] [24 4]] (REQUEST)
r 1.140669149 _14_ RTR  --- 0 AODV 48 [0 ffffffff 17 800] ------- [23:255 -1:255 26 0] [0x2 5 1 [8 0] [24 4]] (REQUEST)
r 1.140669149 _30_ RTR  --- 0 AODV 48 [0 ffffffff 17 800] ------- [23:255 -1:255 26 0] [0x2 5 1 [8 0] [24 4]] (REQUEST)
r 1.140669173 _21_ RTR  --- 0 AODV 48 [0 ffffffff 17 800] ------- [23:255 -1:255 26 0] [0x2 5 1 [8 0] [24 4]] (REQUEST)
r 1.140669290 _13_ RTR  --- 0 AODV 48 [0 ffffffff 17 800] ------- [23:255 -1:255 26 0] [0x2 5 1 [8 0] [24 4]] (REQUEST)
r 1.140669290 _29_ RTR  --- 0 AODV 48 [0 ffffffff 17 800] ------- [23:255 -1:255 26 0] [0x2 5 1 [8 0] [24 4]] (REQUEST)
r 1.140669380 _20_ RTR  --- 0 AODV 48 [0 ffffffff 17 800] ------- [23:255 -1:255 26 0] [0x2 5 1 [8 0] [24 4]] (REQUEST)
r 1.140669423 _7_ RTR  --- 0 AODV 48 [0 ffffffff 17 800] ------- [23:255 -1:255 26 0] [0x2 5 1 [8 0] [24 4]] (REQUEST)
r 1.140669423 _39_ RTR  --- 0 AODV 48 [0 ffffffff 17 800] ------- [23:255 -1:255 26 0] [0x2 5 1 [8 0] [24 4]] (REQUEST)
r 1.140669455 _6_ RTR  --- 0 AODV 48 [0 ffffffff 17 800] ------- [23:255 -1:255 26 0] [0x2 5 1 [8 0] [24 4]] (REQUEST)
r 1.140669455 _38_ RTR  --- 0 AODV 48 [0 ffffffff 17 800] ------- [23:255 -1:255 26 0] [0x2 5 1 [8 0] [24 4]] (REQUEST)
r 1.140669463 _12_ RTR  --- 0 AODV 48 [0 ffffffff 17 800] ------- [23:255 -1:255 26 0] [0x2 5 1 [8 0] [24 4]] (REQUEST)
r 1.140669463 _28_ RTR  --- 0 AODV 48 [0 ffffffff 17 800] ------- [23:255 -1:255 26 0] [0x2 5 1 [8 0] [24 4]] (REQUEST)
r 1.140669543 _5_ RTR  --- 0 AODV 48 [0 ffffffff 17 800] ------- [23:255 -1:255 26 0] [0x2 5 1 [8 0] [24 4]] (REQUEST)
r 1.140669543 _37_ RTR  --- 0 AODV 48 [0 ffffffff 17 800] ------- [23:255 -1:255 26 0] [0x2 5 1 [8 0] [24 4]] (REQUEST)
r 1.140669590 _19_ RTR  --- 0 AODV 48 [0 ffffffff 17 800] ------- [23:255 -1:255 26 0] [0x2 5 1 [8 0] [24 4]] (REQUEST)
s 1.141308480 _30_ RTR  --- 0 AODV 48 [0 ffffffff 25 800] ------- [30:255 -1:255 27 0] [0x2 4 1 [8 0] [24 4]] (REQUEST)
s 1.142364267 _39_ RTR  --- 0 AODV 48 [0 ffffffff 25 800] ------- [39:255 -1:255 27 0] [0x2 4 1 [8 0] [24 4]] (REQUEST)
r 1.142878579 _6_ RTR  --- 0 AODV 48 [0 ffffffff 7 800] ------- [7:255 -1:255 27 0] [0x2 4 1 [8 0] [24 4]] (REQUEST)
r 1.142878705 _15_ RTR  --- 0 AODV 48 [0 ffffffff 7 800] ------- [7:255 -1:255 27 0] [0x2 4 1 [8 0] [24 4]] (REQUEST)
r 1.143000436 _10_ RTR  --- 0 AODV 48 [0 ffffffff b 800] ------- [11:255 -1:255 28 0] [0x2 3 1 [8 0] [24 4]] (REQUEST)
r 1.143000439 _12_ RTR  --- 0 AODV 48 [0 ffffffff b 800] ------- [11:255 -1:255 28 0] [0x2 3 1 [8 0] [24 4]] (REQUEST)
r 1.143000562 _3_ RTR  --- 0 AODV 48 [0 ffffffff b 800] ------- [11:255 -1:255 28 0] [0x2 3 1 [8 0] [24 4]] (REQUEST)
r 1.143000562 _19_ RTR  --- 0 AODV 48 [0 ffffffff b 800] ------- [11:255 -1:255 28 0] [0x2 3 1 [8 0] [24 4]] (REQUEST)
r 1.143000621 _2_ RTR  --- 0 AODV 48 [0 ffffffff b 800] ------- [11:255 -1:255 28 0] [0x2 3 1 [8 0] [24 4]] (REQUEST)
r 1.143000621 _18_ RTR  --- 0 AODV 48 [0 ffffffff b 800] ------- [11:255 -1:255 28 0] [0x2 3 1 [8 0] [24 4]] (REQUEST)
r 1.143000623 _20_ RTR  --- 0 AODV 48 [0 ffffffff b 800] ------- [11:255 -1:255 28 0] [0x2 3 1 [8 0] [24 4]] (REQUEST)
r 1.143000646 _9_ RTR  --- 0 AODV 48 [0 ffffffff b 800] ------- [11:255 -1:255 28 0] [0x2 3 1 [8 0] [24 4]] (REQUEST)
r 1.143000763 _1_ RTR  --- 0 AODV 48 [0 ffffffff b 800] ------- [11:255 -1:255 28 0] [0x2 3 1 [8 0] [24 4]] (REQUEST)
r 1.143000763 _17_ RTR  --- 0 AODV 48 [0 ffffffff b 800] ------- [11:255 -1:255 28 0] [0x2 3 1 [8 0] [24 4]] (REQUEST)
r 1.143000852 _8_ RTR  --- 0 AODV 48 [0 ffffffff b 800] ------- [11:255 -1:255 28 0] [0x2 3 1 [8 0] [24 4]] (REQUEST)
r 1.143000896 _27_ RTR  --- 0 AODV 48 [0 ffffffff b 800] ------- [11:255 -1:255 28 0] [0x2 3 1 [8 0] [24 4]] (REQUEST)
r 1.143000927 _26_ RTR  --- 0 AODV 48 [0 ffffffff b 800] ------- [11:255 -1:255 28 0] [0x2 3 1 [8 0] [24 4]] (REQUEST)
r 1.143000936 _0_ RTR  --- 0 AODV 48 [0 ffffffff b 800] ------- [11:255 -1:255 28 0] [0x2 3 1 [8 0] [24 4]] (REQUEST)
r 1.143000936 _16_ RTR  --- 0 AODV 48 [0 ffffffff b 800] ------- [11:255 -1:255 28 0] [0x2 3 1 [8 0] [24 4]] (REQUEST)
r 1.143001015 _25_ RTR  --- 0 AODV 48 [0 ffffffff b 800] ------- [11:255 -1:255 28 0] [0x2 3 1 [8 0] [24 4]] (REQUEST)
s 1.143779183 _31_ RTR  --- 0 AODV 48 [0 ffffffff 25 800] ------- [31:255 -1:255 27 0] [0x2 4 1 [8 0] [24 4]] (REQUEST)
s 1.144423383 _22_ RTR  --- 0 AODV 48 [0 ffffffff 25 800] ------- [22:255 -1:255 27 0] [0x2 4 1 [8 0] [24 4]] (REQUEST)
r 1.145358687 _31_ RTR  --- 0 AODV 48 [0 ffffffff 1e 800] ------- [30:255 -1:255 27 0] [0x2 4 1 [8 0] [24 4]] (REQUEST)
r 1.145358690 _29_ RTR  --- 0 AODV 48 [0 ffffffff 1e 800] ------- [30:255 -1:255 27 0] [0x2 4 1 [8 0] [24 4]] (REQUEST)
r 1.145358813 _22_ RTR  --- 0 AODV 48 [0 ffffffff 1e 800] ------- [30:255 -1:255 27 0] [0x2 4 1 [8 0] [24 4]] (REQUEST)
r 1.145358813 _38_ RTR  --- 0 AODV 48 [0 ffffffff 1e 800] ------- [30:255 -1:255 27 0] [0x2 4 1 [8 0] [24 4]] (REQUEST)
r 1.145358872 _23_ RTR  --- 0 AODV 48 [0 ffffffff 1e 800] ------- [30:255 -1:255 27 0] [0x2 4 1 [8 0] [24 4]] (REQUEST)
r 1.145358872 _39_ RTR  --- 0 AODV 48 [0 ffffffff 1e 800] ------- [30:255 -1:255 27 0] [0x2 4 1 [8 0] [24 4]] (REQUEST)
r 1.145358874 _21_ RTR  --- 0 AODV 48 [0 ffffffff 1e 800] ------- [30:255 -1:255 27 0] [0x2 4 1 [8 0] [24 4]] (REQUEST)
r 1.145358874 _37_ RTR  --- 0 AODV 48 [0 ffffffff 1e 800] ------- [30:255 -1:255 27 0] [0x2 4 1 [8 0] [24 4]] (REQUEST)
r 1.145358897 _28_ RTR  --- 0 AODV 48 [0 ffffffff 1e 800] ------- [30:255 -1:255 27 0] [0x2 4 1 [8 0] [24 4]] (REQUEST)
r 1.145359014 _20_ RTR  --- 0 AODV 48 [0 ffffffff 1e 800] ------- [30:255 -1:255 27 0] [0x2 4 1 [8 0] [24 4]] (REQUEST)
r 1.145359014 _36_ RTR  --- 0 AODV 48 [0 ffffffff 1e 800] ------- [30:255 -1:255 27 0] [0x2 4 1 [8 0] [24 4]] (REQUEST)
r 1.145359107 _27_ RTR  --- 0 AODV 48 [0 ffffffff 1e 800] ------- [30:255 -1:255 27 0] [0x2 4 1 [8 0] [24 4]] (REQUEST)
r 1.145359147 _14_ RTR  --- 0 AODV 48 [0 ffffffff 1e 800] ------- [30:255 -1:255 27 0] [0x2 4 1 [8 0] [24 4]] (REQUEST)
r 1.145359178 _15_ RTR  --- 0 AODV 48 [0 ffffffff 1e 800] ------- [30:255 -1:255 27 0] [0x2 4 1 [8 0] [24 4]] (REQUEST)
r 1.145359179 _13_ RTR  --- 0 AODV 48 [0 ffffffff 1e 800] ------- [30:255 -1:255 27 0] [0x2 4 1 [8 0] [24 4]] (REQUEST)
r 1.145359190 _19_ RTR  --- 0 AODV 48 [0 ffffffff 1e 800] ------- [30:255 -1:255 27 0] [0x2 4 1 [8 0] [24 4]] (REQUEST)
r 1.145359190 _35_ RTR  --- 0 AODV 48 [0 ffffffff 1e 800] ------- [30:255 -1:255 27 0] [0x2 4 1 [8 0] [24 4]] (REQUEST)
r 1.145359266 _12_ RTR  --- 0 AODV 48 [0 ffffffff 1e 800] ------- [30:255 -1:255 27 0] [0x2 4 1 [8 0] [24 4]] (REQUEST)
r 1.145359313 _26_ RTR  --- 0 AODV 48 [0 ffffffff 1e 800] ------- [30:255 -1:255 27 0] [0x2 4 1 [8 0] [24 4]] (REQUEST)
r 1.148025589 _23_ RTR  --- 0 AODV 48 [0 ffffffff 16 800] ------- [22:255 -1:255 27 0] [0x2 4 1 [8 0] [24 4]] (REQUEST)
r 1.148025593 _21_ RTR  --- 0 AODV 48 [0 ffffffff 16 800] ------- [22:255 -1:255 27 0] [0x2 4 1 [8 0] [24 4]] (REQUEST)
r 1.148025716 _14_ RTR  --- 0 AODV 48 [0 ffffffff 16 800] ------- [22:255 -1:255 27 0] [0x2 4 1 [8 0] [24 4]] (REQUEST)
r 1.148025716 _30_ RTR  --- 0 AODV 48 [0 ffffffff 16 800] ------- [22:255 -1:255 27 0] [0x2 4 1 [8 0] [24 4]] (REQUEST)
r 1.148025775 _15_ RTR  --- 0 AODV 48 [0 ffffffff 16 800] ------- [22:255 -1:255 27 0] [0x2 4 1 [8 0] [24 4]] (REQUEST)