s 1.106011134 _23_ AGT  --- 0 tcp 40 [0 0 0 0] ------- [23:1 27:1 32 0] [0 0] 0 0
r 1.106011134 _23_ RTR  --- 0 tcp 40 [0 0 0 0] ------- [23:1 27:1 32 0] [0 0] 0 0
s 1.106011134 _23_ RTR  --- 0 AODV 48 [0 0 0 0] ------- [23:255 -1:255 30 0] [0x2 1 1 [27 0] [23 4]] (REQUEST)
s 1.108921443 _38_ AGT  --- 1 tcp 40 [0 0 0 0] ------- [38:0 6:1 32 0] [0 0] 0 0
r 1.108921443 _38_ RTR  --- 1 tcp 40 [0 0 0 0] ------- [38:0 6:1 32 0] [0 0] 0 0
s 1.108921443 _38_ RTR  --- 0 AODV 48 [0 0 0 0] ------- [38:255 -1:255 30 0] [0x2 1 1 [6 0] [38 4]] (REQUEST)
r 1.109293340 _22_ RTR  --- 0 AODV 48 [0 ffffffff 17 800] ------- [23:255 -1:255 30 0] [0x2 1 1 [27 0] [23 4]] (REQUEST)
r 1.109293467 _15_ RTR  --- 0 AODV 48 [0 ffffffff 17 800] ------- [23:255 -1:255 30 0] [0x2 1 1 [27 0] [23 4]] (REQUEST)
r 1.109293467 _31_ RTR  --- 0 AODV 48 [0 ffffffff 17 800] ------- [23:255 -1:255 30 0] [0x2 1 1 [27 0] [23 4]] (REQUEST)
r 1.109293526 _14_ RTR  --- 0 AODV 48 [0 ffffffff 17 800] ------- [23:255 -1:255 30 0] [0x2 1 1 [27 0] [23 4]] (REQUEST)
r 1.109293526 _30_ RTR  --- 0 AODV 48 [0 ffffffff 17 800] ------- [23:255 -1:255 30 0] [0x2 1 1 [27 0] [23 4]] (REQUEST)
r 1.109293550 _21_ RTR  --- 0 AODV 48 [0 ffffffff 17 800] ------- [23:255 -1:255 30 0] [0x2 1 1 [27 0] [23 4]] (REQUEST)
r 1.109293667 _13_ RTR  --- 0 AODV 48 [0 ffffffff 17 800] ------- [23:255 -1:255 30 0] [0x2 1 1 [27 0] [23 4]] (REQUEST)
r 1.109293667 _29_ RTR  --- 0 AODV 48 [0 ffffffff 17 800] ------- [23:255 -1:255 30 0] [0x2 1 1 [27 0] [23 4]] (REQUEST)
r 1.109293757 _20_ RTR  --- 0 AODV 48 [0 ffffffff 17 800] ------- [23:255 -1:255 30 0] [0x2 1 1 [27 0] [23 4]] (REQUEST)
r 1.109293800 _7_ RTR  --- 0 AODV 48 [0 ffffffff 17 800] ------- [23:255 -1:255 30 0] [0x2 1 1 [27 0] [23 4]] (REQUEST)
r 1.109293800 _39_ RTR  --- 0 AODV 48 [0 ffffffff 17 800] ------- [23:255 -1:255 30 0] [0x2 1 1 [27 0] [23 4]] (REQUEST)
r 1.109293832 _6_ RTR  --- 0 AODV 48 [0 ffffffff 17 800] ------- [23:255 -1:255 30 0] [0x2 1 1 [27 0] [23 4]] (REQUEST)
r 1.109293832 _38_ RTR  --- 0 AODV 48 [0 ffffffff 17 800] ------- [23:255 -1:255 30 0] [0x2 1 1 [27 0] [23 4]] (REQUEST)
r 1.109293840 _12_ RTR  --- 0 AODV 48 [0 ffffffff 17 800] ------- [23:255 -1:255 30 0] [0x2 1 1 [27 0] [23 4]] (REQUEST)
r 1.109293840 _28_ RTR  --- 0 AODV 48 [0 ffffffff 17 800] ------- [23:255 -1:255 30 0] [0x2 1 1 [27 0] [23 4]] (REQUEST)
r 1.109293920 _5_ RTR  --- 0 AODV 48 [0 ffffffff 17 800] ------- [23:255 -1:255 30 0] [0x2 1 1 [27 0] [23 4]] (REQUEST)
r 1.109293920 _37_ RTR  --- 0 AODV 48 [0 ffffffff 17 800] ------- [23:255 -1:255 30 0] [0x2 1 1 [27 0] [23 4]] (REQUEST)
r 1.109293967 _19_ RTR  --- 0 AODV 48 [0 ffffffff 17 800] ------- [23:255 -1:255 30 0] [0x2 1 1 [27 0] [23 4]] (REQUEST)
s 1.109958607 _20_ RTR  --- 0 AODV 48 [0 ffffffff 17 800] ------- [20:255 -1:255 29 0] [0x2 2 1 [27 0] [23 4]] (REQUEST)
s 1.110811465 _30_ RTR  --- 0 AODV 48 [0 ffffffff 17 800] ------- [30:255 -1:255 29 0] [0x2 2 1 [27 0] [23 4]] (REQUEST)
s 1.111352745 _37_ RTR  --- 0 AODV 48 [0 ffffffff 17 800] ------- [37:255 -1:255 29 0] [0x2 2 1 [27 0] [23 4]] (REQUEST)
s 1.111922449 _12_ RTR  --- 0 AODV 48 [0 ffffffff 17 800] ------- [12:255 -1:255 29 0] [0x2 2 1 [27 0] [23 4]] (REQUEST)
r 1.113163650 _39_ RTR  --- 0 AODV 48 [0 ffffffff 26 800] ------- [38:255 -1:255 30 0] [0x2 1 1 [6 0] [38 4]] (REQUEST)
r 1.113163653 _37_ RTR  --- 0 AODV 48 [0 ffffffff 26 800] ------- [38:255 -1:255 30 0] [0x2 1 1 [6 0] [38 4]] (REQUEST)
r 1.113163776 _30_ RTR  --- 0 AODV 48 [0 ffffffff 26 800] ------- [38:255 -1:255 30 0] [0x2 1 1 [6 0] [38 4]] (REQUEST)
r 1.113163835 _31_ RTR  --- 0 AODV 48 [0 ffffffff 26 800] ------- [38:255 -1:255 30 0] [0x2 1 1 [6 0] [38 4]] (REQUEST)
r 1.113163837 _29_ RTR  --- 0 AODV 48 [0 ffffffff 26 800] ------- [38:255 -1:255 30 0] [0x2 1 1 [6 0] [38 4]] (REQUEST)
r 1.113163860 _36_ RTR  --- 0 AODV 48 [0 ffffffff 26 800] ------- [38:255 -1:255 30 0] [0x2 1 1 [6 0] [38 4]] (REQUEST)
r 1.113163977 _28_ RTR  --- 0 AODV 48 [0 ffffffff 26 800] ------- [38:255 -1:255 30 0] [0x2 1 1 [6 0] [38 4]] (REQUEST)
r 1.113164070 _35_ RTR  --- 0 AODV 48 [0 ffffffff 26 800] ------- [38:255 -1:255 30 0] [0x2 1 1 [6 0] [38 4]] (REQUEST)
r 1.113164110 _22_ RTR  --- 0 AODV 48 [0 ffffffff 26 800] ------- [38:255 -1:255 30 0] [0x2 1 1 [6 0] [38 4]] (REQUEST)
r 1.113164141 _23_ RTR  --- 0 AODV 48 [0 ffffffff 26 800] ------- [38:255 -1:255 30 0] [0x2 1 1 [6 0] [38 4]] (REQUEST)
r 1.113164142 _21_ RTR  --- 0 AODV 48 [0 ffffffff 26 800] ------- [38:255 -1:255 30 0] [0x2 1 1 [6 0] [38 4]] (REQUEST)
r 1.113164153 _27_ RTR  --- 0 AODV 48 [0 ffffffff 26 800] ------- [38:255 -1:255 30 0] [0x2 1 1 [6 0] [38 4]] (REQUEST)
r 1.113164229 _20_ RTR  --- 0 AODV 48 [0 ffffffff 26 800] ------- [38:255 -1:255 30 0] [0x2 1 1 [6 0] [38 4]] (REQUEST)
r 1.113164276 _34_ RTR  --- 0 AODV 48 [0 ffffffff 26 800] ------- [38:255 -1:255 30 0] [0x2 1 1 [6 0] [38 4]] (REQUEST)
s 1.113579565 _31_ RTR  --- 0 AODV 48 [0 ffffffff 26 800] ------- [31:255 -1:255 29 0] [0x2 2 1 [6 0] [38 4]] (REQUEST)
s 1.113703138 _28_ RTR  --- 0 AODV 48 [0 ffffffff 26 800] ------- [28:255 -1:255 29 0] [0x2 2 1 [6 0] [38 4]] (REQUEST)
s 1.113717607 _23_ RTR  --- 0 AODV 48 [0 ffffffff 26 800] ------- [23:255 -1:255 29 0] [0x2 2 1 [6 0] [38 4]] (REQUEST)
s 1.113893078 _22_ RTR  --- 0 AODV 48 [0 ffffffff 17 800] ------- [22:255 -1:255 29 0] [0x2 2 1 [27 0] [23 4]] (REQUEST)
s 1.113937810 _29_ RTR  --- 0 AODV 48 [0 ffffffff 26 800] ------- [29:255 -1:255 29 0] [0x2 2 1 [6 0] [38 4]] (REQUEST)
s 1.114089002 _28_ RTR  --- 0 AODV 48 [0 ffffffff 17 800] ------- [28:255 -1:255 29 0] [0x2 2 1 [27 0] [23 4]] (REQUEST)
s 1.114358018 _36_ RTR  --- 0 AODV 48 [0 ffffffff 26 800] ------- [36:255 -1:255 29 0] [0x2 2 1 [6 0] [38 4]] (REQUEST)
s 1.114474099 _39_ RTR  --- 0 AODV 48 [0 ffffffff 17 800] ------- [39:255 -1:255 29 0] [0x2 2 1 [27 0] [23 4]] (REQUEST)
s 1.114647193 _29_ RTR  --- 0 AODV 48 [0 ffffffff 17 800] ------- [29:255 -1:255 29 0] [0x2 2 1 [27 0] [23 4]] (REQUEST)
s 1.114695984 _13_ RTR  --- 0 AODV 48 [0 ffffffff 17 800] ------- [13:255 -1:255 29 0] [0x2 2 1 [27 0] [23 4]] (REQUEST)
s 1.114828148 _37_ RTR  --- 0 AODV 48 [0 ffffffff 26 800] ------- [37:255 -1:255 29 0] [0x2 2 1 [6 0] [38 4]] (REQUEST)
s 1.115092819 _30_ RTR  --- 0 AODV 48 [0 ffffffff 26 800] ------- [30:255 -1:255 29 0] [0x2 2 1 [6 0] [38 4]] (REQUEST)
s 1.115307484 _22_ RTR  --- 0 AODV 48 [0 ffffffff 26 800] ------- [22:255 -1:255 29 0] [0x2 2 1 [6 0] [38 4]] (REQUEST)
r 1.115594951 _36_ RTR  --- 0 AODV 48 [0 ffffffff 25 800] ------- [37:255 -1:255 29 0] [0x2 2 1 [27 0] [23 4]] (REQUEST)
r 1.115594955 _38_ RTR  --- 0 AODV 48 [0 ffffffff 25 800] ------- [37:255 -1:255 29 0] [0x2 2 1 [27 0] [23 4]] (REQUEST)
r 1.115595078 _29_ RTR  --- 0 AODV 48 [0 ffffffff 25 800] ------- [37:255 -1:255 29 0] [0x2 2 1 [27 0] [23 4]] (REQUEST)
r 1.115595137 _28_ RTR  --- 0 AODV 48 [0 ffffffff 25 800] ------- [37:255 -1:255 29 0] [0x2 2 1 [27 0] [23 4]] (REQUEST)
r 1.115595139 _30_ RTR  --- 0 AODV 48 [0 ffffffff 25 800] ------- [37:255 -1:255 29 0] [0x2 2 1 [27 0] [23 4]] (REQUEST)
r 1.115595161 _35_ RTR  --- 0 AODV 48 [0 ffffffff 25 800] ------- [37:255 -1:255 29 0] [0x2 2 1 [27 0] [23 4]] (REQUEST)
r 1.115595161 _39_ RTR  --- 0 AODV 48 [0 ffffffff 25 800] ------- [37:255 -1:255 29 0] [0x2 2 1 [27 0] [23 4]] (REQUEST)
r 1.115595278 _31_ RTR  --- 0 AODV 48 [0 ffffffff 25 800] ------- [37:255 -1:255 29 0] [0x2 2 1 [27 0] [23 4]] (REQUEST)
r 1.115595278 _27_ RTR  --- 0 AODV 48 [0 ffffffff 25 800] ------- [37:255 -1:255 29 0] [0x2 2 1 [27 0] [23 4]] (REQUEST)
s 1.115595278 _27_ RTR  --- 0 AODV 44 [0 0 0 0] ------- [27:255 23:255 30 37] [0x4 1 [27 4] 10.000000] (REPLY)
r 1.115595368 _34_ RTR  --- 0 AODV 48 [0 ffffffff 25 800] ------- [37:255 -1:255 29 0] [0x2 2 1 [27 0] [23 4]] (REQUEST)
r 1.115595411 _21_ RTR  --- 0 AODV 48 [0 ffffffff 25 800] ------- [37:255 -1:255 29 0] [0x2 2 1 [27 0] [23 4]] (REQUEST)
r 1.115595443 _20_ RTR  --- 0 AODV 48 [0 ffffffff 25 800] ------- [37:255 -1:255 29 0] [0x2 2 1 [27 0] [23 4]] (REQUEST)
r 1.115595444 _22_ RTR  --- 0 AODV 48 [0 ffffffff 25 800] ------- [37:255 -1:255 29 0] [0x2 2 1 [27 0] [23 4]] (REQUEST)
r 1.115595451 _26_ RTR  --- 0 AODV 48 [0 ffffffff 25 800] ------- [37:255 -1:255 29 0] [0x2 2 1 [27 0] [23 4]] (REQUEST)
r 1.115595531 _23_ RTR  --- 0 AODV 48 [0 ffffffff 25 800] ------- [37:255 -1:255 29 0] [0x2 2 1 [27 0] [23 4]] (REQUEST)
r 1.115595531 _19_ RTR  --- 0 AODV 48 [0 ffffffff 25 800] ------- [37:255 -1:255 29 0] [0x2 2 1 [27 0] [23 4]] (REQUEST)
r 1.115595578 _33_ RTR  --- 0 AODV 48 [0 ffffffff 25 800] ------- [37:255 -1:255 29 0] [0x2 2 1 [27 0] [23 4]] (REQUEST)
s 1.115794921 _33_ RTR  --- 0 AODV 48 [0 ffffffff 25 800] ------- [33:255 -1:255 28 0] [0x2 3 1 [27 0] [23 4]] (REQUEST)
s 1.115967935 _39_ RTR  --- 0 AODV 48 [0 ffffffff 26 800] ------- [39:255 -1:255 29 0] [0x2 2 1 [6 0] [38 4]] (REQUEST)
s 1.116047742 _19_ RTR  --- 0 AODV 48 [0 ffffffff 17 800] ------- [19:255 -1:255 29 0] [0x2 2 1 [27 0] [23 4]] (REQUEST)
s 1.116591706 _38_ RTR  --- 0 AODV 48 [0 ffffffff 17 800] ------- [38:255 -1:255 29 0] [0x2 2 1 [27 0] [23 4]] (REQUEST)
s 1.116755411 _35_ RTR  --- 0 AODV 48 [0 ffffffff 26 800] ------- [35:255 -1:255 29 0] [0x2 2 1 [6 0] [38 4]] (REQUEST)
s 1.116790852 _5_ RTR  --- 0 AODV 48 [0 ffffffff 17 800] ------- [5:255 -1:255 29 0] [0x2 2 1 [27 0] [23 4]] (REQUEST)
s 1.117186760 _34_ RTR  --- 0 AODV 48 [0 ffffffff 25 800] ------- [34:255 -1:255 28 0] [0x2 3 1 [27 0] [23 4]] (REQUEST)
s 1.117467890 _34_ RTR  --- 0 AODV 48 [0 ffffffff 26 800] ------- [34:255 -1:255 29 0] [0x2 2 1 [6 0] [38 4]] (REQUEST)
r 1.118061798 _38_ RTR  --- 0 AODV 48 [0 ffffffff 1e 800] ------- [30:255 -1:255 29 0] [0x2 2 1 [27 0] [23 4]] (REQUEST)
r 1.118061857 _39_ RTR  --- 0 AODV 48 [0 ffffffff 1e 800] ------- [30:255 -1:255 29 0] [0x2 2 1 [27 0] [23 4]] (REQUEST)
s 1.118103627 _6_ RTR  --- 0 AODV 48 [0 ffffffff 17 800] ------- [6:255 -1:255 29 0] [0x2 2 1 [27 0] [23 4]] (REQUEST)
r 1.118135411 _14_ RTR  --- 0 AODV 48 [0 ffffffff 16 800] ------- [22:255 -1:255 29 0] [0x2 2 1 [27 0] [23 4]] (REQUEST)
r 1.118135470 _15_ RTR  --- 0 AODV 48 [0 ffffffff 16 800] ------- [22:255 -1:255 29 0] [0x2 2 1 [27 0] [23 4]] (REQUEST)
s 1.118293006 _26_ RTR  --- 0 AODV 48 [0 ffffffff 25 800] ------- [26:255 -1:255 28 0] [0x2 3 1 [27 0] [23 4]] (REQUEST)
s 1.118307848 _15_ RTR  --- 0 AODV 48 [0 ffffffff 17 800] ------- [15:255 -1:255 29 0] [0x2 2 1 [27 0] [23 4]] (REQUEST)
s 1.118350597 _14_ RTR  --- 0 AODV 48 [0 ffffffff 17 800] ------- [14:255 -1:255 29 0] [0x2 2 1 [27 0] [23 4]] (REQUEST)
s 1.118743791 _21_ RTR  --- 0 AODV 48 [0 ffffffff 17 800] ------- [21:255 -1:255 29 0] [0x2 2 1 [27 0] [23 4]] (REQUEST)
s 1.118870662 _31_ RTR  --- 0 AODV 48 [0 ffffffff 17 800] ------- [31:255 -1:255 29 0] [0x2 2 1 [27 0] [23 4]] (REQUEST)
s 1.119012107 _7_ RTR  --- 0 AODV 48 [0 ffffffff 17 800] ------- [7:255 -1:255 29 0] [0x2 2 1 [27 0] [23 4]] (REQUEST)
r 1.120206088 _29_ RTR  --- 0 AODV 48 [0 ffffffff 1c 800] ------- [28:255 -1:255 29 0] [0x2 2 1 [6 0] [38 4]] (REQUEST)
r 1.120206091 _27_ RTR  --- 0 AODV 48 [0 ffffffff 1c 800] ------- [28:255 -1:255 29 0] [0x2 2 1 [6 0] [38 4]] (REQUEST)
r 1.120206215 _20_ RTR  --- 0 AODV 48 [0 ffffffff 1c 800] ------- [28:255 -1:255 29 0] [0x2 2 1 [6 0] [38 4]] (REQUEST)
r 1.120206215 _36_ RTR  --- 0 AODV 48 [0 ffffffff 1c 800] ------- [28:255 -1:255 29 0] [0x2 2 1 [6 0] [38 4]] (REQUEST)
r 1.120206274 _21_ RTR  --- 0 AODV 48 [0 ffffffff 1c 800] ------- [28:255 -1:255 29 0] [0x2 2 1 [6 0] [38 4]] (REQUEST)
r 1.120206274 _37_ RTR  --- 0 AODV 48 [0 ffffffff 1c 800] ------- [28:255 -1:255 29 0] [0x2 2 1 [6 0] [38 4]] (REQUEST)
r 1.120206275 _19_ RTR  --- 0 AODV 48 [0 ffffffff 1c 800] ------- [28:255 -1:255 29 0] [0x2 2 1 [6 0] [38 4]] (REQUEST)
r 1.120206275 _35_ RTR  --- 0 AODV 48 [0 ffffffff 1c 800] ------- [28:255 -1:255 29 0] [0x2 2 1 [6 0] [38 4]] (REQUEST)
r 1.120206298 _26_ RTR  --- 0 AODV 48 [0 ffffffff 1c 800] ------- [28:255 -1:255 29 0] [0x2 2 1 [6 0] [38 4]] (REQUEST)
r 1.120206298 _30_ RTR  --- 0 AODV 48 [0 ffffffff 1c 800] ------- [28:255 -1:255 29 0] [0x2 2 1 [6 0] [38 4]] (REQUEST)
r 1.120206415 _22_ RTR  --- 0 AODV 48 [0 ffffffff 1c 800] ------- [28:255 -1:255 29 0] [0x2 2 1 [6 0] [38 4]] (REQUEST)
r 1.120206415 _18_ RTR  --- 0 AODV 48 [0 ffffffff 1c 800] ------- [28:255 -1:255 29 0] [0x2 2 1 [6 0] [38 4]] (REQUEST)
r 1.120206415 _34_ RTR  --- 0 AODV 48 [0 ffffffff 1c 800] ------- [28:255 -1:255 29 0] [0x2 2 1 [6 0] [38 4]] (REQUEST)
r 1.120206415 _38_ RTR  --- 0 AODV 48 [0 ffffffff 1c 800] ------- [28:255 -1:255 29 0] [0x2 2 1 [6 0] [38 4]] (REQUEST)
r 1.120206505 _31_ RTR  --- 0 AODV 48 [0 ffffffff 1c 800] ------- [28:255 -1:255 29 0] [0x2 2 1 [6 0] [38 4]] (REQUEST)
r 1.120206508 _25_ RTR  --- 0 AODV 48 [0 ffffffff 1c 800] ------- [28:255 -1:255 29 0] [0x2 2 1 [6 0] [38 4]] (REQUEST)
r 1.120206548 _12_ RTR  --- 0 AODV 48 [0 ffffffff 1c 800] ------- [28:255 -1:255 29 0] [0x2 2 1 [6 0] [38 4]] (REQUEST)
r 1.120206579 _13_ RTR  --- 0 AODV 48 [0 ffffffff 1c 800] ------- [28:255 -1:255 29 0] [0x2 2 1 [6 0] [38 4]] (REQUEST)
r 1.120206580 _11_ RTR  --- 0 AODV 48 [0 ffffffff 1c 800] ------- [28:255 -1:255 29 0] [0x2 2 1 [6 0] [38 4]] (REQUEST)
r 1.120206588 _23_ RTR  --- 0 AODV 48 [0 ffffffff 1c 800] ------- [28:255 -1:255 29 0] [0x2 2 1 [6 0] [38 4]] (REQUEST)
r 1.120206588 _39_ RTR  --- 0 AODV 48 [0 ffffffff 1c 800] ------- [28:255 -1:255 29 0] [0x2 2 1 [6 0] [38 4]] (REQUEST)
r 1.120206591 _17_ RTR  --- 0 AODV 48 [0 ffffffff 1c 800] ------- [28:255 -1:255 29 0] [0x2 2 1 [6 0] [38 4]] (REQUEST)
r 1.120206591 _33_ RTR  --- 0 AODV 48 [0 ffffffff 1c 800] ------- [28:255 -1:255 29 0] [0x2 2 1 [6 0] [38 4]] (REQUEST)
r 1.120206667 _14_ RTR  --- 0 AODV 48 [0 ffffffff 1c 800] ------- [28:255 -1:255 29 0] [0x2 2 1 [6 0] [38 4]] (REQUEST)
r 1.120206667 _10_ RTR  --- 0 AODV 48 [0 ffffffff 1c 800] ------- [28:255 -1:255 29 0] [0x2 2 1 [6 0] [38 4]] (REQUEST)
r 1.120206715 _24_ RTR  --- 0 AODV 48 [0 ffffffff 1c 800] ------- [28:255 -1:255 29 0] [0x2 2 1 [6 0] [38 4]] (REQUEST)
s 1.120247750 _20_ RTR  --- 0 AODV 48 [0 ffffffff 26 800] ------- [20:255 -1:255 29 0] [0x2 2 1 [6 0] [38 4]] (REQUEST)
s 1.120367629 _35_ RTR  --- 0 AODV 48 [0 ffffffff 25 800] ------- [35:255 -1:255 28 0] [0x2 3 1 [27 0] [23 4]] (REQUEST)
s 1.120857414 _19_ RTR  --- 0 AODV 48 [0 ffffffff 1c 800] ------- [19:255 -1:255 28 0] [0x2 3 1 [6 0] [38 4]] (REQUEST)
s 1.121386262 _27_ RTR  --- 0 AODV 48 [0 ffffffff 26 800] ------- [27:255 -1:255 29 0] [0x2 2 1 [6 0] [38 4]] (REQUEST)
r 1.122573671 _31_ RTR  --- 0 AODV 48 [0 ffffffff 1e 800] ------- [30:255 -1:255 29 0] [0x2 2 1 [6 0] [38 4]] (REQUEST)
r 1.122665834 _7_ RTR  --- 0 AODV 48 [0 ffffffff 6 800] ------- [6:255 -1:255 29 0] [0x2 2 1 [27 0] [23 4]] (REQUEST)
r 1.122665837 _5_ RTR  --- 0 AODV 48 [0 ffffffff 6 800] ------- [6:255 -1:255 29 0] [0x2 2 1 [27 0] [23 4]] (REQUEST)
r 1.122665998 _20_ RTR  --- 0 AODV 48 [0 ffffffff 15 800] ------- [21:255 -1:255 29 0] [0x2 2 1 [27 0] [23 4]] (REQUEST)
s 1.122694367 _11_ RTR  --- 0 AODV 48 [0 ffffffff 1c 800] ------- [11:255 -1:255 28 0] [0x2 3 1 [6 0] [38 4]] (REQUEST)
r 1.122696228 _35_ RTR  --- 0 AODV 48 [0 ffffffff 24 800] ------- [36:255 -1:255 29 0] [0x2 2 1 [6 0] [38 4]] (REQUEST)
r 1.122696435 _34_ RTR  --- 0 AODV 48 [0 ffffffff 24 800] ------- [36:255 -1:255 29 0] [0x2 2 1 [6 0] [38 4]] (REQUEST)
s 1.122702626 _21_ RTR  --- 0 AODV 48 [0 ffffffff 26 800] ------- [21:255 -1:255 29 0] [0x2 2 1 [6 0] [38 4]] (REQUEST)
s 1.123334254 _26_ RTR  --- 0 AODV 48 [0 ffffffff 1c 800] ------- [26:255 -1:255 28 0] [0x2 3 1 [6 0] [38 4]] (REQUEST)
s 1.123496701 _10_ RTR  --- 0 AODV 48 [0 ffffffff 1c 800] ------- [10:255 -1:255 28 0] [0x2 3 1 [6 0] [38 4]] (REQUEST)
s 1.123977908 _36_ RTR  --- 0 AODV 48 [0 ffffffff 25 800] ------- [36:255 -1:255 28 0] [0x2 3 1 [27 0] [23 4]] (REQUEST)
s 1.124936770 _25_ RTR  --- 0 AODV 48 [0 ffffffff 1c 800] ------- [25:255 -1:255 28 0] [0x2 3 1 [6 0] [38 4]] (REQUEST)
s 1.125236346 _13_ RTR  --- 0 AODV 48 [0 ffffffff 1c 800] ------- [13:255 -1:255 28 0] [0x2 3 1 [6 0] [38 4]] (REQUEST)
s 1.125316325 _24_ RTR  --- 0 AODV 48 [0 ffffffff 1c 800] ------- [24:255 -1:255 28 0] [0x2 3 1 [6 0] [38 4]] (REQUEST)
r 1.125345949 _18_ RTR  --- 0 AODV 48 [0 ffffffff 13 800] ------- [19:255 -1:255 29 0] [0x2 2 1 [27 0] [23 4]] (REQUEST)
r 1.125346076 _11_ RTR  --- 0 AODV 48 [0 ffffffff 13 800] ------- [19:255 -1:255 29 0] [0x2 2 1 [27 0] [23 4]] (REQUEST)
r 1.125346135 _10_ RTR  --- 0 AODV 48 [0 ffffffff 13 800] ------- [19:255 -1:255 29 0] [0x2 2 1 [27 0] [23 4]] (REQUEST)
r 1.125383814 _22_ RTR  --- 0 AODV 48 [0 ffffffff 17 800] ------- [23:255 -1:255 29 0] [0x2 2 1 [6 0] [38 4]] (REQUEST)
r 1.125383941 _15_ RTR  --- 0 AODV 48 [0 ffffffff 17 800] ------- [23:255 -1:255 29 0] [0x2 2 1 [6 0] [38 4]] (REQUEST)
r 1.125486088 _29_ RTR  --- 0 AODV 48 [0 ffffffff 1c 800] ------- [28:255 -1:255 29 0] [0x2 2 1 [27 0] [23 4]] (REQUEST)
r 1.125486215 _36_ RTR  --- 0 AODV 48 [0 ffffffff 1c 800] ------- [28:255 -1:255 29 0] [0x2 2 1 [27 0] [23 4]] (REQUEST)
s 1.126196622 _10_ RTR  --- 0 AODV 48 [0 ffffffff 13 800] ------- [10:255 -1:255 28 0] [0x2 3 1 [27 0] [23 4]] (REQUEST)
s 1.126327232 _11_ RTR  --- 0 AODV 48 [0 ffffffff 13 800] ------- [11:255 -1:255 28 0] [0x2 3 1 [27 0] [23 4]] (REQUEST)
r 1.127844020 _30_ RTR  --- 0 AODV 48 [0 ffffffff 1d 800] ------- [29:255 -1:255 29 0] [0x2 2 1 [6 0] [38 4]] (REQUEST)
r 1.127844144 _37_ RTR  --- 0 AODV 48 [0 ffffffff 1d 800] ------- [29:255 -1:255 29 0] [0x2 2 1 [6 0] [38 4]] (REQUEST)
r 1.127844204 _38_ RTR  --- 0 AODV 48 [0 ffffffff 1d 800] ------- [29:255 -1:255 29 0] [0x2 2 1 [6 0] [38 4]] (REQUEST)
r 1.127844227 _31_ RTR  --- 0 AODV 48 [0 ffffffff 1d 800] ------- [29:255 -1:255 29 0] [0x2 2 1 [6 0] [38 4]] (REQUEST)
r 1.127844344 _39_ RTR  --- 0 AODV 48 [0 ffffffff 1d 800] ------- [29:255 -1:255 29 0] [0x2 2 1 [6 0] [38 4]] (REQUEST)
r 1.127896574 _10_ RTR  --- 0 AODV 48 [0 ffffffff b 800] ------- [11:255 -1:255 28 0] [0x2 3 1 [6 0] [38 4]] (REQUEST)
r 1.127896577 _12_ RTR  --- 0 AODV 48 [0 ffffffff b 800] ------- [11:255 -1:255 28 0] [0x2 3 1 [6 0] [38 4]] (REQUEST)
r 1.127896701 _3_ RTR  --- 0 AODV 48 [0 ffffffff b 800] ------- [11:255 -1:255 28 0] [0x2 3 1 [6 0] [38 4]] (REQUEST)
r 1.127896760 _2_ RTR  --- 0 AODV 48 [0 ffffffff b 800] ------- [11:255 -1:255 28 0] [0x2 3 1 [6 0] [38 4]] (REQUEST)
r 1.127896761 _4_ RTR  --- 0 AODV 48 [0 ffffffff b 800] ------- [11:255 -1:255 28 0] [0x2 3 1 [6 0] [38 4]] (REQUEST)
r 1.127911216 _25_ RTR  --- 0 AODV 48 [0 ffffffff 1a 800] ------- [26:255 -1:255 28 0] [0x2 3 1 [27 0] [23 4]] (REQUEST)
r 1.127911340 _34_ RTR  --- 0 AODV 48 [0 ffffffff 1a 800] ------- [26:255 -1:255 28 0] [0x2 3 1 [27 0] [23 4]] (REQUEST)
r 1.127911400 _33_ RTR  --- 0 AODV 48 [0 ffffffff 1a 800] ------- [26:255 -1:255 28 0] [0x2 3 1 [27 0] [23 4]] (REQUEST)
r 1.127911423 _24_ RTR  --- 0 AODV 48 [0 ffffffff 1a 800] ------- [26:255 -1:255 28 0] [0x2 3 1 [27 0] [23 4]] (REQUEST)
r 1.127911540 _32_ RTR  --- 0 AODV 48 [0 ffffffff 1a 800] ------- [26:255 -1:255 28 0] [0x2 3 1 [27 0] [23 4]] (REQUEST)
s 1.128632915 _18_ RTR  --- 0 AODV 48 [0 ffffffff 1c 800] ------- [18:255 -1:255 28 0] [0x2 3 1 [6 0] [38 4]] (REQUEST)
s 1.128813197 _17_ RTR  --- 0 AODV 48 [0 ffffffff 1c 800] ------- [17:255 -1:255 28 0] [0x2 3 1 [6 0] [38 4]] (REQUEST)
s 1.129068388 _18_ RTR  --- 0 AODV 48 [0 ffffffff 13 800] ------- [18:255 -1:255 28 0] [0x2 3 1 [27 0] [23 4]] (REQUEST)
s 1.129234155 _14_ RTR  --- 0 AODV 48 [0 ffffffff 1c 800] ------- [14:255 -1:255 28 0] [0x2 3 1 [6 0] [38 4]] (REQUEST)
s 1.129362767 _33_ RTR  --- 0 AODV 48 [0 ffffffff 1c 800] ------- [33:255 -1:255 28 0] [0x2 3 1 [6 0] [38 4]] (REQUEST)
s 1.129932788 _4_ RTR  --- 0 AODV 48 [0 ffffffff b 800] ------- [4:255 -1:255 27 0] [0x2 4 1 [6 0] [38 4]] (REQUEST)
s 1.130079782 _12_ RTR  --- 0 AODV 48 [0 ffffffff 1c 800] ------- [12:255 -1:255 28 0] [0x2 3 1 [6 0] [38 4]] (REQUEST)
s 1.130141106 _15_ RTR  --- 0 AODV 48 [0 ffffffff 17 800] ------- [15:255 -1:255 28 0] [0x2 3 1 [6 0] [38 4]] (REQUEST)
r 1.130168574 _10_ RTR  --- 0 AODV 48 [0 ffffffff b 800] ------- [11:255 -1:255 28 0] [0x2 3 1 [27 0] [23 4]] (REQUEST)
r 1.130168577 _12_ RTR  --- 0 AODV 48 [0 ffffffff b 800] ------- [11:255 -1:255 28 0] [0x2 3 1 [27 0] [23 4]] (REQUEST)
r 1.130168701 _3_ RTR  --- 0 AODV 48 [0 ffffffff b 800] ------- [11:255 -1:255 28 0] [0x2 3 1 [27 0] [23 4]] (REQUEST)
r 1.130168701 _19_ RTR  --- 0 AODV 48 [0 ffffffff b 800] ------- [11:255 -1:255 28 0] [0x2 3 1 [27 0] [23 4]] (REQUEST)
r 1.130168760 _2_ RTR  --- 0 AODV 48 [0 ffffffff b 800] ------- [11:255 -1:255 28 0] [0x2 3 1 [27 0] [23 4]] (REQUEST)
r 1.130168760 _18_ RTR  --- 0 AODV 48 [0 ffffffff b 800] ------- [11:255 -1:255 28 0] [0x2 3 1 [27 0] [23 4]] (REQUEST)
r 1.130168761 _4_ RTR  --- 0 AODV 48 [0 ffffffff b 800] ------- [11:255 -1:255 28 0] [0x2 3 1 [27 0] [23 4]] (REQUEST)
r 1.130168761 _20_ RTR  --- 0 AODV 48 [0 ffffffff b 800] ------- [11:255 -1:255 28 0] [0x2 3 1 [27 0] [23 4]] (REQUEST)
r 1.130168784 _9_ RTR  --- 0 AODV 48 [0 ffffffff b 800] ------- [11:255 -1:255 28 0] [0x2 3 1 [27 0] [23 4]] (REQUEST)
r 1.130168784 _13_ RTR  --- 0 AODV 48 [0 ffffffff b 800] ------- [11:255 -1:255 28 0] [0x2 3 1 [27 0] [23 4]] (REQUEST)
r 1.130168901 _5_ RTR  --- 0 AODV 48 [0 ffffffff b 800] ------- [11:255 -1:255 28 0] [0x2 3 1 [27 0] [23 4]] (REQUEST)
r 1.130168901 _1_ RTR  --- 0 AODV 48 [0 ffffffff b 800] ------- [11:255 -1:255 28 0] [0x2 3 1 [27 0] [23 4]] (REQUEST)
r 1.130168901 _17_ RTR  --- 0 AODV 48 [0 ffffffff b 800] ------- [11:255 -1:255 28 0] [0x2 3 1 [27 0] [23 4]] (REQUEST)
r 1.130168991 _8_ RTR  --- 0 AODV 48 [0 ffffffff b 800] ------- [11:255 -1:255 28 0] [0x2 3 1 [27 0] [23 4]] (REQUEST)
r 1.130169074 _0_ RTR  --- 0 AODV 48 [0 ffffffff b 800] ------- [11:255 -1:255 28 0] [0x2 3 1 [27 0] [23 4]] (REQUEST)
r 1.130169074 _16_ RTR  --- 0 AODV 48 [0 ffffffff b 800] ------- [11:255 -1:255 28 0] [0x2 3 1 [27 0] [23 4]] (REQUEST)
r 1.130173772 _30_ RTR  --- 0 AODV 48 [0 ffffffff 1f 800] ------- [31:255 -1:255 29 0] [0x2 2 1 [6 0] [38 4]] (REQUEST)
r 1.130173899 _23_ RTR  --- 0 AODV 48 [0 ffffffff 1f 800] ------- [31:255 -1:255 29 0] [0x2 2 1 [6 0] [38 4]] (REQUEST)
r 1.130173899 _39_ RTR  --- 0 AODV 48 [0 ffffffff 1f 800] ------- [31:255 -1:255 29 0] [0x2 2 1 [6 0] [38 4]] (REQUEST)
r 1.130173958 _22_ RTR  --- 0 AODV 48 [0 ffffffff 1f 800] ------- [31:255 -1:255 29 0] [0x2 2 1 [6 0] [38 4]] (REQUEST)
r 1.130173958 _38_ RTR  --- 0 AODV 48 [0 ffffffff 1f 800] ------- [31:255 -1:255 29 0] [0x2 2 1 [6 0] [38 4]] (REQUEST)
r 1.130173982 _29_ RTR  --- 0 AODV 48 [0 ffffffff 1f 800] ------- [31:255 -1:255 29 0] [0x2 2 1 [6 0] [38 4]] (REQUEST)
r 1.130174099 _37_ RTR  --- 0 AODV 48 [0 ffffffff 1f 800] ------- [31:255 -1:255 29 0] [0x2 2 1 [6 0] [38 4]] (REQUEST)
s 1.131465908 _9_ RTR  --- 0 AODV 48 [0 ffffffff b 800] ------- [9:255 -1:255 27 0] [0x2 4 1 [27 0] [23 4]] (REQUEST)
s 1.131533200 _24_ RTR  --- 0 AODV 48 [0 ffffffff 1a 800] ------- [24:255 -1:255 27 0] [0x2 4 1 [27 0] [23 4]] (REQUEST)
s 1.131690886 _2_ RTR  --- 0 AODV 48 [0 ffffffff b 800] ------- [2:255 -1:255 27 0] [0x2 4 1 [27 0] [23 4]] (REQUEST)
r 1.132415404 _16_ RTR  --- 0 AODV 48 [0 ffffffff 11 800] ------- [17:255 -1:255 28 0] [0x2 3 1 [6 0] [38 4]] (REQUEST)
r 1.132415531 _9_ RTR  --- 0 AODV 48 [0 ffffffff 11 800] ------- [17:255 -1:255 28 0] [0x2 3 1 [6 0] [38 4]] (REQUEST)
r 1.132570191 _12_ RTR  --- 0 AODV 48 [0 ffffffff d 800] ------- [13:255 -1:255 29 0] [0x2 2 1 [27 0] [23 4]] (REQUEST)
s 1.132900505 _4_ RTR  --- 0 AODV 48 [0 ffffffff b 800] ------- [4:255 -1:255 27 0] [0x2 4 1 [27 0] [23 4]] (REQUEST)
s 1.132940523 _3_ RTR  --- 0 AODV 48 [0 ffffffff b 800] ------- [3:255 -1:255 27 0] [0x2 4 1 [27 0] [23 4]] (REQUEST)
r 1.134934055 _14_ RTR  --- 0 AODV 48 [0 ffffffff f 800] ------- [15:255 -1:255 28 0] [0x2 3 1 [6 0] [38 4]] (REQUEST)
r 1.134934182 _7_ RTR  --- 0 AODV 48 [0 ffffffff f 800] ------- [15:255 -1:255 28 0] [0x2 3 1 [6 0] [38 4]] (REQUEST)
r 1.134934182 _23_ RTR  --- 0 AODV 48 [0 ffffffff f 800] ------- [15:255 -1:255 28 0] [0x2 3 1 [6 0] [38 4]] (REQUEST)
r 1.134934241 _22_ RTR  --- 0 AODV 48 [0 ffffffff f 800] ------- [15:255 -1:255 28 0] [0x2 3 1 [6 0] [38 4]] (REQUEST)
s 1.134963857 _3_ RTR  --- 0 AODV 48 [0 ffffffff b 800] ------- [3:255 -1:255 27 0] [0x2 4 1 [6 0] [38 4]] (REQUEST)
r 1.135070994 _5_ RTR  --- 0 AODV 48 [0 ffffffff 4 800] ------- [4:255 -1:255 27 0] [0x2 4 1 [6 0] [38 4]] (REQUEST)
r 1.135070998 _3_ RTR  --- 0 AODV 48 [0 ffffffff 4 800] ------- [4:255 -1:255 27 0] [0x2 4 1 [6 0] [38 4]] (REQUEST)
r 1.135071121 _12_ RTR  --- 0 AODV 48 [0 ffffffff 4 800] ------- [4:255 -1:255 27 0] [0x2 4 1 [6 0] [38 4]] (REQUEST)
r 1.135071182 _11_ RTR  --- 0 AODV 48 [0 ffffffff 4 800] ------- [4:255 -1:255 27 0] [0x2 4 1 [6 0] [38 4]] (REQUEST)
r 1.135071204 _2_ RTR  --- 0 AODV 48 [0 ffffffff 4 800] ------- [4:255 -1:255 27 0] [0x2 4 1 [6 0] [38 4]] (REQUEST)
r 1.135071414 _1_ RTR  --- 0 AODV 48 [0 ffffffff 4 800] ------- [4:255 -1:255 27 0] [0x2 4 1 [6 0] [38 4]] (REQUEST)
r 1.135141618 _34_ RTR  --- 0 AODV 48 [0 ffffffff 23 800] ------- [35:255 -1:255 29 0] [0x2 2 1 [6 0] [38 4]] (REQUEST)
r 1.135141621 _36_ RTR  --- 0 AODV 48 [0 ffffffff 23 800] ------- [35:255 -1:255 29 0] [0x2 2 1 [6 0] [38 4]] (REQUEST)
r 1.135141745 _27_ RTR  --- 0 AODV 48 [0 ffffffff 23 800] ------- [35:255 -1:255 29 0] [0x2 2 1 [6 0] [38 4]] (REQUEST)
r 1.135141803 _26_ RTR  --- 0 AODV 48 [0 ffffffff 23 800] ------- [35:255 -1:255 29 0] [0x2 2 1 [6 0] [38 4]] (REQUEST)
r 1.135141805 _28_ RTR  --- 0 AODV 48 [0 ffffffff 23 800] ------- [35:255 -1:255 29 0] [0x2 2 1 [6 0] [38 4]] (REQUEST)
r 1.135141828 _33_ RTR  --- 0 AODV 48 [0 ffffffff 23 800] ------- [35:255 -1:255 29 0] [0x2 2 1 [6 0] [38 4]] (REQUEST)
r 1.135141828 _37_ RTR  --- 0 AODV 48 [0 ffffffff 23 800] ------- [35:255 -1:255 29 0] [0x2 2 1 [6 0] [38 4]] (REQUEST)
r 1.135141945 _25_ RTR  --- 0 AODV 48 [0 ffffffff 23 800] ------- [35:255 -1:255 29 0] [0x2 2 1 [6 0] [38 4]] (REQUEST)
r 1.135142035 _32_ RTR  --- 0 AODV 48 [0 ffffffff 23 800] ------- [35:255 -1:255 29 0] [0x2 2 1 [6 0] [38 4]] (REQUEST)
s 1.135180761 _5_ RTR  --- 0 AODV 48 [0 ffffffff 4 800] ------- [5:255 -1:255 26 0] [0x2 5 1 [6 0] [38 4]] (REQUEST)
s 1.135383456 _2_ RTR  --- 0 AODV 48 [0 ffffffff b 800] ------- [2:255 -1:255 27 0] [0x2 4 1 [6 0] [38 4]] (REQUEST)
s 1.135629536 _16_ RTR  --- 0 AODV 48 [0 ffffffff b 800] ------- [16:255 -1:255 27 0] [0x2 4 1 [27 0] [23 4]] (REQUEST)
s 1.135883246 _32_ RTR  --- 0 AODV 48 [0 ffffffff 1a 800] ------- [32:255 -1:255 27 0] [0x2 4 1 [27 0] [23 4]] (REQUEST)
s 1.136832358 _16_ RTR  --- 0 AODV 48 [0 ffffffff 11 800] ------- [16:255 -1:255 27 0] [0x2 4 1 [6 0] [38 4]] (REQUEST)
s 1.137083391 _0_ RTR  --- 0 AODV 48 [0 ffffffff b 800] ------- [0:255 -1:255 27 0] [0x2 4 1 [27 0] [23 4]] (REQUEST)
r 1.137457989 _13_ RTR  --- 0 AODV 48 [0 ffffffff c 800] ------- [12:255 -1:255 28 0] [0x2 3 1 [6 0] [38 4]] (REQUEST)
r 1.137457992 _11_ RTR  --- 0 AODV 48 [0 ffffffff c 800] ------- [12:255 -1:255 28 0] [0x2 3 1 [6 0] [38 4]] (REQUEST)
r 1.137458116 _4_ RTR  --- 0 AODV 48 [0 ffffffff c 800] ------- [12:255 -1:255 28 0] [0x2 3 1 [6 0] [38 4]] (REQUEST)
r 1.137458116 _20_ RTR  --- 0 AODV 48 [0 ffffffff c 800] ------- [12:255 -1:255 28 0] [0x2 3 1 [6 0] [38 4]] (REQUEST)
r 1.137458175 _5_ RTR  --- 0 AODV 48 [0 ffffffff c 800] ------- [12:255 -1:255 28 0] [0x2 3 1 [6 0] [38 4]] (REQUEST)
r 1.137458176 _3_ RTR  --- 0 AODV 48 [0 ffffffff c 800] ------- [12:255 -1:255 28 0] [0x2 3 1 [6 0] [38 4]] (REQUEST)
r 1.137458176 _19_ RTR  --- 0 AODV 48 [0 ffffffff c 800] ------- [12:255 -1:255 28 0] [0x2 3 1 [6 0] [38 4]] (REQUEST)
r 1.137458199 _10_ RTR  --- 0 AODV 48 [0 ffffffff c 800] ------- [12:255 -1:255 28 0] [0x2 3 1 [6 0] [38 4]] (REQUEST)
r 1.137458316 _6_ RTR  --- 0 AODV 48 [0 ffffffff c 800] ------- [12:255 -1:255 28 0] [0x2 3 1 [6 0] [38 4]] (REQUEST)
r 1.137458316 _2_ RTR  --- 0 AODV 48 [0 ffffffff c 800] ------- [12:255 -1:255 28 0] [0x2 3 1 [6 0] [38 4]] (REQUEST)
r 1.137458316 _18_ RTR  --- 0 AODV 48 [0 ffffffff c 800] ------- [12:255 -1:255 28 0] [0x2 3 1 [6 0] [38 4]] (REQUEST)
s 1.137458316 _6_ RTR  --- 0 AODV 44 [0 0 0 0] ------- [6:255 38:255 30 12] [0x4 1 [6 4] 10.000000] (REPLY)
r 1.137458409 _9_ RTR  --- 0 AODV 48 [0 ffffffff c 800] ------- [12:255 -1:255 28 0] [0x2 3 1 [6 0] [38 4]] (REQUEST)
r 1.137458492 _1_ RTR  --- 0 AODV 48 [0 ffffffff c 800] ------- [12:255 -1:255 28 0] [0x2 3 1 [6 0] [38 4]] (REQUEST)
r 1.137458492 _17_ RTR  --- 0 AODV 48 [0 ffffffff c 800] ------- [12:255 -1:255 28 0] [0x2 3 1 [6 0] [38 4]] (REQUEST)
r 1.137458616 _8_ RTR  --- 0 AODV 48 [0 ffffffff c 800] ------- [12:255 -1:255 28 0] [0x2 3 1 [6 0] [38 4]] (REQUEST)
r 1.137693772 _30_ RTR  --- 0 AODV 48 [0 ffffffff 1f 800] ------- [31:255 -1:255 29 0] [0x2 2 1 [27 0] [23 4]] (REQUEST)
r 1.137693899 _39_ RTR  --- 0 AODV 48 [0 ffffffff 1f 800] ------- [31:255 -1:255 29 0] [0x2 2 1 [27 0] [23 4]] (REQUEST)
r 1.137693958 _38_ RTR  --- 0 AODV 48 [0 ffffffff 1f 800] ------- [31:255 -1:255 29 0] [0x2 2 1 [27 0] [23 4]] (REQUEST)
r 1.137694099 _37_ RTR  --- 0 AODV 48 [0 ffffffff 1f 800] ------- [31:255 -1:255 29 0] [0x2 2 1 [27 0] [23 4]] (REQUEST)
s 1.137717502 _22_ AGT  --- 2 tcp 40 [0 0 0 0] ------- [22:1 30:1 32 0] [0 0] 0 0
r 1.137717502 _22_ RTR  --- 2 tcp 40 [0 0 0 0] ------- [22:1 30:1 32 0] [0 0] 0 0
s 1.137717502 _22_ RTR  --- 0 AODV 48 [0 0 0 0] ------- [22:255 -1:255 30 0] [0x2 1 1 [30 0] [22 4]] (REQUEST)
s 1.137773231 _25_ RTR  --- 0 AODV 48 [0 ffffffff 1a 800] ------- [25:255 -1:255 27 0] [0x2 4 1 [27 0] [23 4]] (REQUEST)
s 1.138390161 _8_ RTR  --- 0 AODV 48 [0 ffffffff b 800] ------- [8:255 -1:255 27 0] [0x2 4 1 [27 0] [23 4]] (REQUEST)
s 1.138544018 _17_ RTR  --- 0 AODV 48 [0 ffffffff b 800] ------- [17:255 -1:255 27 0] [0x2 4 1 [27 0] [23 4]] (REQUEST)
s 1.138854424 _32_ RTR  --- 0 AODV 48 [0 ffffffff 23 800] ------- [32:255 -1:255 28 0] [0x2 3 1 [6 0] [38 4]] (REQUEST)