s 1.028573734 _18_ AGT  --- 0 tcp 40 [0 0 0 0] ------- [18:4 37:2 32 0] [0 0] 0 0
r 1.028573734 _18_ RTR  --- 0 tcp 40 [0 0 0 0] ------- [18:4 37:2 32 0] [0 0] 0 0
s 1.028573734 _18_ RTR  --- 0 AODV 48 [0 0 0 0] ------- [18:255 -1:255 30 0] [0x2 1 1 [37 0] [18 4]] (REQUEST)
r 1.031855941 _19_ RTR  --- 0 AODV 48 [0 ffffffff 12 800] ------- [18:255 -1:255 30 0] [0x2 1 1 [37 0] [18 4]] (REQUEST)
r 1.031855944 _17_ RTR  --- 0 AODV 48 [0 ffffffff 12 800] ------- [18:255 -1:255 30 0] [0x2 1 1 [37 0] [18 4]] (REQUEST)
r 1.031856068 _10_ RTR  --- 0 AODV 48 [0 ffffffff 12 800] ------- [18:255 -1:255 30 0] [0x2 1 1 [37 0] [18 4]] (REQUEST)
r 1.031856068 _26_ RTR  --- 0 AODV 48 [0 ffffffff 12 800] ------- [18:255 -1:255 30 0] [0x2 1 1 [37 0] [18 4]] (REQUEST)
r 1.031856127 _11_ RTR  --- 0 AODV 48 [0 ffffffff 12 800] ------- [18:255 -1:255 30 0] [0x2 1 1 [37 0] [18 4]] (REQUEST)
r 1.031856127 _27_ RTR  --- 0 AODV 48 [0 ffffffff 12 800] ------- [18:255 -1:255 30 0] [0x2 1 1 [37 0] [18 4]] (REQUEST)
r 1.031856128 _9_ RTR  --- 0 AODV 48 [0 ffffffff 12 800] ------- [18:255 -1:255 30 0] [0x2 1 1 [37 0] [18 4]] (REQUEST)
r 1.031856128 _25_ RTR  --- 0 AODV 48 [0 ffffffff 12 800] ------- [18:255 -1:255 30 0] [0x2 1 1 [37 0] [18 4]] (REQUEST)
r 1.031856151 _16_ RTR  --- 0 AODV 48 [0 ffffffff 12 800] ------- [18:255 -1:255 30 0] [0x2 1 1 [37 0] [18 4]] (REQUEST)
r 1.031856151 _20_ RTR  --- 0 AODV 48 [0 ffffffff 12 800] ------- [18:255 -1:255 30 0] [0x2 1 1 [37 0] [18 4]] (REQUEST)
r 1.031856268 _12_ RTR  --- 0 AODV 48 [0 ffffffff 12 800] ------- [18:255 -1:255 30 0] [0x2 1 1 [37 0] [18 4]] (REQUEST)
r 1.031856268 _8_ RTR  --- 0 AODV 48 [0 ffffffff 12 800] ------- [18:255 -1:255 30 0] [0x2 1 1 [37 0] [18 4]] (REQUEST)
r 1.031856268 _24_ RTR  --- 0 AODV 48 [0 ffffffff 12 800] ------- [18:255 -1:255 30 0] [0x2 1 1 [37 0] [18 4]] (REQUEST)
r 1.031856268 _28_ RTR  --- 0 AODV 48 [0 ffffffff 12 800] ------- [18:255 -1:255 30 0] [0x2 1 1 [37 0] [18 4]] (REQUEST)
r 1.031856358 _21_ RTR  --- 0 AODV 48 [0 ffffffff 12 800] ------- [18:255 -1:255 30 0] [0x2 1 1 [37 0] [18 4]] (REQUEST)
r 1.031856401 _2_ RTR  --- 0 AODV 48 [0 ffffffff 12 800] ------- [18:255 -1:255 30 0] [0x2 1 1 [37 0] [18 4]] (REQUEST)
r 1.031856401 _34_ RTR  --- 0 AODV 48 [0 ffffffff 12 800] ------- [18:255 -1:255 30 0] [0x2 1 1 [37 0] [18 4]] (REQUEST)
r 1.031856432 _3_ RTR  --- 0 AODV 48 [0 ffffffff 12 800] ------- [18:255 -1:255 30 0] [0x2 1 1 [37 0] [18 4]] (REQUEST)
r 1.031856432 _35_ RTR  --- 0 AODV 48 [0 ffffffff 12 800] ------- [18:255 -1:255 30 0] [0x2 1 1 [37 0] [18 4]] (REQUEST)
r 1.031856433 _1_ RTR  --- 0 AODV 48 [0 ffffffff 12 800] ------- [18:255 -1:255 30 0] [0x2 1 1 [37 0] [18 4]] (REQUEST)
r 1.031856433 _33_ RTR  --- 0 AODV 48 [0 ffffffff 12 800] ------- [18:255 -1:255 30 0] [0x2 1 1 [37 0] [18 4]] (REQUEST)
r 1.031856441 _13_ RTR  --- 0 AODV 48 [0 ffffffff 12 800] ------- [18:255 -1:255 30 0] [0x2 1 1 [37 0] [18 4]] (REQUEST)
r 1.031856441 _29_ RTR  --- 0 AODV 48 [0 ffffffff 12 800] ------- [18:255 -1:255 30 0] [0x2 1 1 [37 0] [18 4]] (REQUEST)
r 1.031856521 _4_ RTR  --- 0 AODV 48 [0 ffffffff 12 800] ------- [18:255 -1:255 30 0] [0x2 1 1 [37 0] [18 4]] (REQUEST)
r 1.031856521 _0_ RTR  --- 0 AODV 48 [0 ffffffff 12 800] ------- [18:255 -1:255 30 0] [0x2 1 1 [37 0] [18 4]] (REQUEST)
r 1.031856521 _32_ RTR  --- 0 AODV 48 [0 ffffffff 12 800] ------- [18:255 -1:255 30 0] [0x2 1 1 [37 0] [18 4]] (REQUEST)
r 1.031856521 _36_ RTR  --- 0 AODV 48 [0 ffffffff 12 800] ------- [18:255 -1:255 30 0] [0x2 1 1 [37 0] [18 4]] (REQUEST)
r 1.031856568 _22_ RTR  --- 0 AODV 48 [0 ffffffff 12 800] ------- [18:255 -1:255 30 0] [0x2 1 1 [37 0] [18 4]] (REQUEST)
s 1.032271998 _12_ RTR  --- 0 AODV 48 [0 ffffffff 12 800] ------- [12:255 -1:255 29 0] [0x2 2 1 [37 0] [18 4]] (REQUEST)
s 1.032395429 _28_ RTR  --- 0 AODV 48 [0 ffffffff 12 800] ------- [28:255 -1:255 29 0] [0x2 2 1 [37 0] [18 4]] (REQUEST)
s 1.032409867 _34_ RTR  --- 0 AODV 48 [0 ffffffff 12 800] ------- [34:255 -1:255 29 0] [0x2 2 1 [37 0] [18 4]] (REQUEST)
s 1.032630241 _8_ RTR  --- 0 AODV 48 [0 ffffffff 12 800] ------- [8:255 -1:255 29 0] [0x2 2 1 [37 0] [18 4]] (REQUEST)
s 1.033050426 _24_ RTR  --- 0 AODV 48 [0 ffffffff 12 800] ------- [24:255 -1:255 29 0] [0x2 2 1 [37 0] [18 4]] (REQUEST)
s 1.033154936 _0_ RTR  --- 0 AODV 48 [0 ffffffff 12 800] ------- [0:255 -1:255 29 0] [0x2 2 1 [37 0] [18 4]] (REQUEST)
s 1.033474504 _17_ RTR  --- 0 AODV 48 [0 ffffffff 12 800] ------- [17:255 -1:255 29 0] [0x2 2 1 [37 0] [18 4]] (REQUEST)
s 1.033520646 _16_ RTR  --- 0 AODV 48 [0 ffffffff 12 800] ------- [16:255 -1:255 29 0] [0x2 2 1 [37 0] [18 4]] (REQUEST)
s 1.033785193 _20_ RTR  --- 0 AODV 48 [0 ffffffff 12 800] ------- [20:255 -1:255 29 0] [0x2 2 1 [37 0] [18 4]] (REQUEST)
s 1.033999775 _2_ RTR  --- 0 AODV 48 [0 ffffffff 12 800] ------- [2:255 -1:255 29 0] [0x2 2 1 [37 0] [18 4]] (REQUEST)
s 1.034503552 _10_ RTR  --- 0 AODV 48 [0 ffffffff 12 800] ------- [10:255 -1:255 29 0] [0x2 2 1 [37 0] [18 4]] (REQUEST)
s 1.034660413 _25_ RTR  --- 0 AODV 48 [0 ffffffff 12 800] ------- [25:255 -1:255 29 0] [0x2 2 1 [37 0] [18 4]] (REQUEST)
s 1.035447699 _21_ RTR  --- 0 AODV 48 [0 ffffffff 12 800] ------- [21:255 -1:255 29 0] [0x2 2 1 [37 0] [18 4]] (REQUEST)
s 1.035642441 _26_ RTR  --- 0 AODV 48 [0 ffffffff 12 800] ------- [26:255 -1:255 29 0] [0x2 2 1 [37 0] [18 4]] (REQUEST)
r 1.035692074 _35_ RTR  --- 0 AODV 48 [0 ffffffff 22 800] ------- [34:255 -1:255 29 0] [0x2 2 1 [37 0] [18 4]] (REQUEST)
r 1.035692077 _33_ RTR  --- 0 AODV 48 [0 ffffffff 22 800] ------- [34:255 -1:255 29 0] [0x2 2 1 [37 0] [18 4]] (REQUEST)
r 1.035692201 _26_ RTR  --- 0 AODV 48 [0 ffffffff 22 800] ------- [34:255 -1:255 29 0] [0x2 2 1 [37 0] [18 4]] (REQUEST)
r 1.035692259 _27_ RTR  --- 0 AODV 48 [0 ffffffff 22 800] ------- [34:255 -1:255 29 0] [0x2 2 1 [37 0] [18 4]] (REQUEST)
r 1.035692261 _25_ RTR  --- 0 AODV 48 [0 ffffffff 22 800] ------- [34:255 -1:255 29 0] [0x2 2 1 [37 0] [18 4]] (REQUEST)
r 1.035692284 _32_ RTR  --- 0 AODV 48 [0 ffffffff 22 800] ------- [34:255 -1:255 29 0] [0x2 2 1 [37 0] [18 4]] (REQUEST)
r 1.035692284 _36_ RTR  --- 0 AODV 48 [0 ffffffff 22 800] ------- [34:255 -1:255 29 0] [0x2 2 1 [37 0] [18 4]] (REQUEST)
r 1.035692401 _28_ RTR  --- 0 AODV 48 [0 ffffffff 22 800] ------- [34:255 -1:255 29 0] [0x2 2 1 [37 0] [18 4]] (REQUEST)
r 1.035692401 _24_ RTR  --- 0 AODV 48 [0 ffffffff 22 800] ------- [34:255 -1:255 29 0] [0x2 2 1 [37 0] [18 4]] (REQUEST)
r 1.035692491 _37_ RTR  --- 0 AODV 48 [0 ffffffff 22 800] ------- [34:255 -1:255 29 0] [0x2 2 1 [37 0] [18 4]] (REQUEST)
s 1.035692491 _37_ RTR  --- 0 AODV 44 [0 0 0 0] ------- [37:255 18:255 30 34] [0x4 1 [37 4] 10.000000] (REPLY)
r 1.035692534 _18_ RTR  --- 0 AODV 48 [0 ffffffff 22 800] ------- [34:255 -1:255 29 0] [0x2 2 1 [37 0] [18 4]] (REQUEST)
r 1.035692565 _19_ RTR  --- 0 AODV 48 [0 ffffffff 22 800] ------- [34:255 -1:255 29 0] [0x2 2 1 [37 0] [18 4]] (REQUEST)
r 1.035692566 _17_ RTR  --- 0 AODV 48 [0 ffffffff 22 800] ------- [34:255 -1:255 29 0] [0x2 2 1 [37 0] [18 4]] (REQUEST)
r 1.035692574 _29_ RTR  --- 0 AODV 48 [0 ffffffff 22 800] ------- [34:255 -1:255 29 0] [0x2 2 1 [37 0] [18 4]] (REQUEST)
r 1.035692653 _20_ RTR  --- 0 AODV 48 [0 ffffffff 22 800] ------- [34:255 -1:255 29 0] [0x2 2 1 [37 0] [18 4]] (REQUEST)
r 1.035692653 _16_ RTR  --- 0 AODV 48 [0 ffffffff 22 800] ------- [34:255 -1:255 29 0] [0x2 2 1 [37 0] [18 4]] (REQUEST)
r 1.035692701 _38_ RTR  --- 0 AODV 48 [0 ffffffff 22 800] ------- [34:255 -1:255 29 0] [0x2 2 1 [37 0] [18 4]] (REQUEST)
s 1.035784648 _29_ RTR  --- 0 AODV 48 [0 ffffffff 12 800] ------- [29:255 -1:255 29 0] [0x2 2 1 [37 0] [18 4]] (REQUEST)
s 1.036026814 _36_ RTR  --- 0 AODV 48 [0 ffffffff 12 800] ------- [36:255 -1:255 29 0] [0x2 2 1 [37 0] [18 4]] (REQUEST)
s 1.036090856 _38_ RTR  --- 0 AODV 48 [0 ffffffff 22 800] ------- [38:255 -1:255 28 0] [0x2 3 1 [37 0] [18 4]] (REQUEST)
s 1.036160046 _33_ RTR  --- 0 AODV 48 [0 ffffffff 12 800] ------- [33:255 -1:255 29 0] [0x2 2 1 [37 0] [18 4]] (REQUEST)
s 1.037291244 _4_ RTR  --- 0 AODV 48 [0 ffffffff 12 800] ------- [4:255 -1:255 29 0] [0x2 2 1 [37 0] [18 4]] (REQUEST)
s 1.037658843 _32_ RTR  --- 0 AODV 48 [0 ffffffff 12 800] ------- [32:255 -1:255 29 0] [0x2 2 1 [37 0] [18 4]] (REQUEST)
r 1.037960574 _16_ RTR  --- 0 AODV 48 [0 ffffffff 8 800] ------- [8:255 -1:255 29 0] [0x2 2 1 [37 0] [18 4]] (REQUEST)
r 1.037960633 _17_ RTR  --- 0 AODV 48 [0 ffffffff 8 800] ------- [8:255 -1:255 29 0] [0x2 2 1 [37 0] [18 4]] (REQUEST)
s 1.037973408 _11_ RTR  --- 0 AODV 48 [0 ffffffff 12 800] ------- [11:255 -1:255 29 0] [0x2 2 1 [37 0] [18 4]] (REQUEST)
s 1.038410543 _27_ RTR  --- 0 AODV 48 [0 ffffffff 12 800] ------- [27:255 -1:255 29 0] [0x2 2 1 [37 0] [18 4]] (REQUEST)
s 1.038428506 _19_ RTR  --- 0 AODV 48 [0 ffffffff 12 800] ------- [19:255 -1:255 29 0] [0x2 2 1 [37 0] [18 4]] (REQUEST)
s 1.038939954 _1_ RTR  --- 0 AODV 48 [0 ffffffff 12 800] ------- [1:255 -1:255 29 0] [0x2 2 1 [37 0] [18 4]] (REQUEST)
s 1.040078542 _35_ RTR  --- 0 AODV 48 [0 ffffffff 12 800] ------- [35:255 -1:255 29 0] [0x2 2 1 [37 0] [18 4]] (REQUEST)
s 1.040125349 _22_ RTR  --- 0 AODV 48 [0 ffffffff 12 800] ------- [22:255 -1:255 29 0] [0x2 2 1 [37 0] [18 4]] (REQUEST)
s 1.040156895 _13_ RTR  --- 0 AODV 48 [0 ffffffff 12 800] ------- [13:255 -1:255 29 0] [0x2 2 1 [37 0] [18 4]] (REQUEST)
r 1.040289981 _3_ RTR  --- 0 AODV 48 [0 ffffffff 2 800] ------- [2:255 -1:255 29 0] [0x2 2 1 [37 0] [18 4]] (REQUEST)
r 1.040289985 _1_ RTR  --- 0 AODV 48 [0 ffffffff 2 800] ------- [2:255 -1:255 29 0] [0x2 2 1 [37 0] [18 4]] (REQUEST)
r 1.040290108 _10_ RTR  --- 0 AODV 48 [0 ffffffff 2 800] ------- [2:255 -1:255 29 0] [0x2 2 1 [37 0] [18 4]] (REQUEST)
r 1.040290167 _11_ RTR  --- 0 AODV 48 [0 ffffffff 2 800] ------- [2:255 -1:255 29 0] [0x2 2 1 [37 0] [18 4]] (REQUEST)
r 1.040290169 _9_ RTR  --- 0 AODV 48 [0 ffffffff 2 800] ------- [2:255 -1:255 29 0] [0x2 2 1 [37 0] [18 4]] (REQUEST)
r 1.040290191 _0_ RTR  --- 0 AODV 48 [0 ffffffff 2 800] ------- [2:255 -1:255 29 0] [0x2 2 1 [37 0] [18 4]] (REQUEST)
r 1.040290191 _4_ RTR  --- 0 AODV 48 [0 ffffffff 2 800] ------- [2:255 -1:255 29 0] [0x2 2 1 [37 0] [18 4]] (REQUEST)
r 1.040290308 _8_ RTR  --- 0 AODV 48 [0 ffffffff 2 800] ------- [2:255 -1:255 29 0] [0x2 2 1 [37 0] [18 4]] (REQUEST)
s 1.040401683 _9_ RTR  --- 0 AODV 48 [0 ffffffff 12 800] ------- [9:255 -1:255 29 0] [0x2 2 1 [37 0] [18 4]] (REQUEST)
r 1.040541635 _29_ RTR  --- 0 AODV 48 [0 ffffffff 1c 800] ------- [28:255 -1:255 29 0] [0x2 2 1 [37 0] [18 4]] (REQUEST)
r 1.040541639 _27_ RTR  --- 0 AODV 48 [0 ffffffff 1c 800] ------- [28:255 -1:255 29 0] [0x2 2 1 [37 0] [18 4]] (REQUEST)
r 1.040541762 _20_ RTR  --- 0 AODV 48 [0 ffffffff 1c 800] ------- [28:255 -1:255 29 0] [0x2 2 1 [37 0] [18 4]] (REQUEST)
r 1.040541762 _36_ RTR  --- 0 AODV 48 [0 ffffffff 1c 800] ------- [28:255 -1:255 29 0] [0x2 2 1 [37 0] [18 4]] (REQUEST)
r 1.040541821 _21_ RTR  --- 0 AODV 48 [0 ffffffff 1c 800] ------- [28:255 -1:255 29 0] [0x2 2 1 [37 0] [18 4]] (REQUEST)
r 1.040541821 _37_ RTR  --- 0 AODV 48 [0 ffffffff 1c 800] ------- [28:255 -1:255 29 0] [0x2 2 1 [37 0] [18 4]] (REQUEST)
r 1.040541823 _35_ RTR  --- 0 AODV 48 [0 ffffffff 1c 800] ------- [28:255 -1:255 29 0] [0x2 2 1 [37 0] [18 4]] (REQUEST)
r 1.040541845 _26_ RTR  --- 0 AODV 48 [0 ffffffff 1c 800] ------- [28:255 -1:255 29 0] [0x2 2 1 [37 0] [18 4]] (REQUEST)
r 1.040541845 _30_ RTR  --- 0 AODV 48 [0 ffffffff 1c 800] ------- [28:255 -1:255 29 0] [0x2 2 1 [37 0] [18 4]] (REQUEST)
r 1.040541962 _22_ RTR  --- 0 AODV 48 [0 ffffffff 1c 800] ------- [28:255 -1:255 29 0] [0x2 2 1 [37 0] [18 4]] (REQUEST)
r 1.040541962 _34_ RTR  --- 0 AODV 48 [0 ffffffff 1c 800] ------- [28:255 -1:255 29 0] [0x2 2 1 [37 0] [18 4]] (REQUEST)
r 1.040541962 _38_ RTR  --- 0 AODV 48 [0 ffffffff 1c 800] ------- [28:255 -1:255 29 0] [0x2 2 1 [37 0] [18 4]] (REQUEST)
r 1.040542052 _31_ RTR  --- 0 AODV 48 [0 ffffffff 1c 800] ------- [28:255 -1:255 29 0] [0x2 2 1 [37 0] [18 4]] (REQUEST)
r 1.040542136 _39_ RTR  --- 0 AODV 48 [0 ffffffff 1c 800] ------- [28:255 -1:255 29 0] [0x2 2 1 [37 0] [18 4]] (REQUEST)
r 1.040542139 _33_ RTR  --- 0 AODV 48 [0 ffffffff 1c 800] ------- [28:255 -1:255 29 0] [0x2 2 1 [37 0] [18 4]] (REQUEST)
s 1.041250185 _31_ RTR  --- 0 AODV 48 [0 ffffffff 1c 800] ------- [31:255 -1:255 28 0] [0x2 3 1 [37 0] [18 4]] (REQUEST)
s 1.041394916 _3_ RTR  --- 0 AODV 48 [0 ffffffff 12 800] ------- [3:255 -1:255 29 0] [0x2 2 1 [37 0] [18 4]] (REQUEST)
r 1.042862161 _0_ RTR  --- 0 AODV 48 [0 ffffffff 1 800] ------- [1:255 -1:255 29 0] [0x2 2 1 [37 0] [18 4]] (REQUEST)
r 1.042862164 _2_ RTR  --- 0 AODV 48 [0 ffffffff 1 800] ------- [1:255 -1:255 29 0] [0x2 2 1 [37 0] [18 4]] (REQUEST)
r 1.042862287 _9_ RTR  --- 0 AODV 48 [0 ffffffff 1 800] ------- [1:255 -1:255 29 0] [0x2 2 1 [37 0] [18 4]] (REQUEST)
r 1.042862346 _8_ RTR  --- 0 AODV 48 [0 ffffffff 1 800] ------- [1:255 -1:255 29 0] [0x2 2 1 [37 0] [18 4]] (REQUEST)
r 1.042862348 _10_ RTR  --- 0 AODV 48 [0 ffffffff 1 800] ------- [1:255 -1:255 29 0] [0x2 2 1 [37 0] [18 4]] (REQUEST)
r 1.042862371 _3_ RTR  --- 0 AODV 48 [0 ffffffff 1 800] ------- [1:255 -1:255 29 0] [0x2 2 1 [37 0] [18 4]] (REQUEST)
r 1.042862488 _11_ RTR  --- 0 AODV 48 [0 ffffffff 1 800] ------- [1:255 -1:255 29 0] [0x2 2 1 [37 0] [18 4]] (REQUEST)
r 1.042862581 _4_ RTR  --- 0 AODV 48 [0 ffffffff 1 800] ------- [1:255 -1:255 29 0] [0x2 2 1 [37 0] [18 4]] (REQUEST)
r 1.042957021 _37_ RTR  --- 0 AODV 48 [0 ffffffff 24 800] ------- [36:255 -1:255 29 0] [0x2 2 1 [37 0] [18 4]] (REQUEST)
r 1.042957024 _35_ RTR  --- 0 AODV 48 [0 ffffffff 24 800] ------- [36:255 -1:255 29 0] [0x2 2 1 [37 0] [18 4]] (REQUEST)
r 1.042957148 _28_ RTR  --- 0 AODV 48 [0 ffffffff 24 800] ------- [36:255 -1:255 29 0] [0x2 2 1 [37 0] [18 4]] (REQUEST)
r 1.042957207 _29_ RTR  --- 0 AODV 48 [0 ffffffff 24 800] ------- [36:255 -1:255 29 0] [0x2 2 1 [37 0] [18 4]] (REQUEST)
r 1.042957208 _27_ RTR  --- 0 AODV 48 [0 ffffffff 24 800] ------- [36:255 -1:255 29 0] [0x2 2 1 [37 0] [18 4]] (REQUEST)
r 1.042957231 _34_ RTR  --- 0 AODV 48 [0 ffffffff 24 800] ------- [36:255 -1:255 29 0] [0x2 2 1 [37 0] [18 4]] (REQUEST)
r 1.042957231 _38_ RTR  --- 0 AODV 48 [0 ffffffff 24 800] ------- [36:255 -1:255 29 0] [0x2 2 1 [37 0] [18 4]] (REQUEST)
r 1.042957348 _30_ RTR  --- 0 AODV 48 [0 ffffffff 24 800] ------- [36:255 -1:255 29 0] [0x2 2 1 [37 0] [18 4]] (REQUEST)
r 1.042957348 _26_ RTR  --- 0 AODV 48 [0 ffffffff 24 800] ------- [36:255 -1:255 29 0] [0x2 2 1 [37 0] [18 4]] (REQUEST)
r 1.042957438 _39_ RTR  --- 0 AODV 48 [0 ffffffff 24 800] ------- [36:255 -1:255 29 0] [0x2 2 1 [37 0] [18 4]] (REQUEST)
r 1.042957441 _33_ RTR  --- 0 AODV 48 [0 ffffffff 24 800] ------- [36:255 -1:255 29 0] [0x2 2 1 [37 0] [18 4]] (REQUEST)
r 1.042957521 _31_ RTR  --- 0 AODV 48 [0 ffffffff 24 800] ------- [36:255 -1:255 29 0] [0x2 2 1 [37 0] [18 4]] (REQUEST)
s 1.043200314 _11_ AGT  --- 1 tcp 40 [0 0 0 0] ------- [11:1 1:1 32 0] [0 0] 0 0
r 1.043200314 _11_ RTR  --- 1 tcp 40 [0 0 0 0] ------- [11:1 1:1 32 0] [0 0] 0 0
s 1.043200314 _11_ RTR  --- 0 AODV 48 [0 0 0 0] ------- [11:255 -1:255 30 0] [0x2 1 1 [1 0] [11 4]] (REQUEST)
s 1.043227914 _39_ RTR  --- 0 AODV 48 [0 ffffffff 1c 800] ------- [39:255 -1:255 28 0] [0x2 3 1 [37 0] [18 4]] (REQUEST)
r 1.045327555 _23_ RTR  --- 0 AODV 48 [0 ffffffff 16 800] ------- [22:255 -1:255 29 0] [0x2 2 1 [37 0] [18 4]] (REQUEST)
r 1.045327559 _21_ RTR  --- 0 AODV 48 [0 ffffffff 16 800] ------- [22:255 -1:255 29 0] [0x2 2 1 [37 0] [18 4]] (REQUEST)
r 1.045327682 _14_ RTR  --- 0 AODV 48 [0 ffffffff 16 800] ------- [22:255 -1:255 29 0] [0x2 2 1 [37 0] [18 4]] (REQUEST)
r 1.045327682 _30_ RTR  --- 0 AODV 48 [0 ffffffff 16 800] ------- [22:255 -1:255 29 0] [0x2 2 1 [37 0] [18 4]] (REQUEST)
r 1.045327741 _15_ RTR  --- 0 AODV 48 [0 ffffffff 16 800] ------- [22:255 -1:255 29 0] [0x2 2 1 [37 0] [18 4]] (REQUEST)
r 1.045327741 _31_ RTR  --- 0 AODV 48 [0 ffffffff 16 800] ------- [22:255 -1:255 29 0] [0x2 2 1 [37 0] [18 4]] (REQUEST)
r 1.045327743 _13_ RTR  --- 0 AODV 48 [0 ffffffff 16 800] ------- [22:255 -1:255 29 0] [0x2 2 1 [37 0] [18 4]] (REQUEST)
r 1.045327743 _29_ RTR  --- 0 AODV 48 [0 ffffffff 16 800] ------- [22:255 -1:255 29 0] [0x2 2 1 [37 0] [18 4]] (REQUEST)
r 1.045327765 _20_ RTR  --- 0 AODV 48 [0 ffffffff 16 800] ------- [22:255 -1:255 29 0] [0x2 2 1 [37 0] [18 4]] (REQUEST)
r 1.045327882 _12_ RTR  --- 0 AODV 48 [0 ffffffff 16 800] ------- [22:255 -1:255 29 0] [0x2 2 1 [37 0] [18 4]] (REQUEST)
r 1.045327882 _28_ RTR  --- 0 AODV 48 [0 ffffffff 16 800] ------- [22:255 -1:255 29 0] [0x2 2 1 [37 0] [18 4]] (REQUEST)
r 1.045327975 _19_ RTR  --- 0 AODV 48 [0 ffffffff 16 800] ------- [22:255 -1:255 29 0] [0x2 2 1 [37 0] [18 4]] (REQUEST)
r 1.045328015 _6_ RTR  --- 0 AODV 48 [0 ffffffff 16 800] ------- [22:255 -1:255 29 0] [0x2 2 1 [37 0] [18 4]] (REQUEST)
r 1.045328015 _38_ RTR  --- 0 AODV 48 [0 ffffffff 16 800] ------- [22:255 -1:255 29 0] [0x2 2 1 [37 0] [18 4]] (REQUEST)
r 1.045328047 _7_ RTR  --- 0 AODV 48 [0 ffffffff 16 800] ------- [22:255 -1:255 29 0] [0x2 2 1 [37 0] [18 4]] (REQUEST)
r 1.045328047 _39_ RTR  --- 0 AODV 48 [0 ffffffff 16 800] ------- [22:255 -1:255 29 0] [0x2 2 1 [37 0] [18 4]] (REQUEST)
r 1.045328048 _5_ RTR  --- 0 AODV 48 [0 ffffffff 16 800] ------- [22:255 -1:255 29 0] [0x2 2 1 [37 0] [18 4]] (REQUEST)
r 1.045328048 _37_ RTR  --- 0 AODV 48 [0 ffffffff 16 800] ------- [22:255 -1:255 29 0] [0x2 2 1 [37 0] [18 4]] (REQUEST)
r 1.045328059 _11_ RTR  --- 0 AODV 48 [0 ffffffff 16 800] ------- [22:255 -1:255 29 0] [0x2 2 1 [37 0] [18 4]] (REQUEST)
r 1.045328059 _27_ RTR  --- 0 AODV 48 [0 ffffffff 16 800] ------- [22:255 -1:255 29 0] [0x2 2 1 [37 0] [18 4]] (REQUEST)
r 1.045328135 _4_ RTR  --- 0 AODV 48 [0 ffffffff 16 800] ------- [22:255 -1:255 29 0] [0x2 2 1 [37 0] [18 4]] (REQUEST)
r 1.045328135 _36_ RTR  --- 0 AODV 48 [0 ffffffff 16 800] ------- [22:255 -1:255 29 0] [0x2 2 1 [37 0] [18 4]] (REQUEST)
r 1.045328182 _18_ RTR  --- 0 AODV 48 [0 ffffffff 16 800] ------- [22:255 -1:255 29 0] [0x2 2 1 [37 0] [18 4]] (REQUEST)
s 1.045802500 _6_ RTR  --- 0 AODV 48 [0 ffffffff 16 800] ------- [6:255 -1:255 28 0] [0x2 3 1 [37 0] [18 4]] (REQUEST)
s 1.046082073 _5_ RTR  --- 0 AODV 48 [0 ffffffff 16 800] ------- [5:255 -1:255 28 0] [0x2 3 1 [37 0] [18 4]] (REQUEST)
s 1.046092665 _14_ RTR  --- 0 AODV 48 [0 ffffffff 16 800] ------- [14:255 -1:255 28 0] [0x2 3 1 [37 0] [18 4]] (REQUEST)
r 1.047962854 _28_ RTR  --- 0 AODV 48 [0 ffffffff 1d 800] ------- [29:255 -1:255 29 0] [0x2 2 1 [37 0] [18 4]] (REQUEST)
r 1.047962858 _30_ RTR  --- 0 AODV 48 [0 ffffffff 1d 800] ------- [29:255 -1:255 29 0] [0x2 2 1 [37 0] [18 4]] (REQUEST)
r 1.047962981 _37_ RTR  --- 0 AODV 48 [0 ffffffff 1d 800] ------- [29:255 -1:255 29 0] [0x2 2 1 [37 0] [18 4]] (REQUEST)
r 1.047963042 _38_ RTR  --- 0 AODV 48 [0 ffffffff 1d 800] ------- [29:255 -1:255 29 0] [0x2 2 1 [37 0] [18 4]] (REQUEST)
r 1.047963064 _31_ RTR  --- 0 AODV 48 [0 ffffffff 1d 800] ------- [29:255 -1:255 29 0] [0x2 2 1 [37 0] [18 4]] (REQUEST)
r 1.047963181 _39_ RTR  --- 0 AODV 48 [0 ffffffff 1d 800] ------- [29:255 -1:255 29 0] [0x2 2 1 [37 0] [18 4]] (REQUEST)
r 1.047975615 _10_ RTR  --- 0 AODV 48 [0 ffffffff b 800] ------- [11:255 -1:255 30 0] [0x2 1 1 [1 0] [11 4]] (REQUEST)
r 1.047975618 _12_ RTR  --- 0 AODV 48 [0 ffffffff b 800] ------- [11:255 -1:255 30 0] [0x2 1 1 [1 0] [11 4]] (REQUEST)
r 1.047975742 _3_ RTR  --- 0 AODV 48 [0 ffffffff b 800] ------- [11:255 -1:255 30 0] [0x2 1 1 [1 0] [11 4]] (REQUEST)
r 1.047975801 _2_ RTR  --- 0 AODV 48 [0 ffffffff b 800] ------- [11:255 -1:255 30 0] [0x2 1 1 [1 0] [11 4]] (REQUEST)
r 1.047975802 _4_ RTR  --- 0 AODV 48 [0 ffffffff b 800] ------- [11:255 -1:255 30 0] [0x2 1 1 [1 0] [11 4]] (REQUEST)
r 1.047975825 _9_ RTR  --- 0 AODV 48 [0 ffffffff b 800] ------- [11:255 -1:255 30 0] [0x2 1 1 [1 0] [11 4]] (REQUEST)
r 1.047975942 _5_ RTR  --- 0 AODV 48 [0 ffffffff b 800] ------- [11:255 -1:255 30 0] [0x2 1 1 [1 0] [11 4]] (REQUEST)
r 1.047975942 _1_ RTR  --- 0 AODV 48 [0 ffffffff b 800] ------- [11:255 -1:255 30 0] [0x2 1 1 [1 0] [11 4]] (REQUEST)
s 1.047975942 _1_ RTR  --- 0 AODV 44 [0 0 0 0] ------- [1:255 11:255 30 11] [0x4 1 [1 4] 10.000000] (REPLY)
r 1.048146253 _32_ RTR  --- 0 AODV 48 [0 ffffffff 21 800] ------- [33:255 -1:255 29 0] [0x2 2 1 [37 0] [18 4]] (REQUEST)
r 1.048146256 _34_ RTR  --- 0 AODV 48 [0 ffffffff 21 800] ------- [33:255 -1:255 29 0] [0x2 2 1 [37 0] [18 4]] (REQUEST)
r 1.048146380 _25_ RTR  --- 0 AODV 48 [0 ffffffff 21 800] ------- [33:255 -1:255 29 0] [0x2 2 1 [37 0] [18 4]] (REQUEST)
r 1.048146439 _24_ RTR  --- 0 AODV 48 [0 ffffffff 21 800] ------- [33:255 -1:255 29 0] [0x2 2 1 [37 0] [18 4]] (REQUEST)
s 1.048263056 _30_ RTR  --- 0 AODV 48 [0 ffffffff 1c 800] ------- [30:255 -1:255 28 0] [0x2 3 1 [37 0] [18 4]] (REQUEST)
s 1.049756561 _15_ RTR  --- 0 AODV 48 [0 ffffffff 16 800] ------- [15:255 -1:255 28 0] [0x2 3 1 [37 0] [18 4]] (REQUEST)
s 1.050174653 _23_ RTR  --- 0 AODV 48 [0 ffffffff 16 800] ------- [23:255 -1:255 28 0] [0x2 3 1 [37 0] [18 4]] (REQUEST)
r 1.050380647 _27_ RTR  --- 0 AODV 48 [0 ffffffff 1a 800] ------- [26:255 -1:255 29 0] [0x2 2 1 [37 0] [18 4]] (REQUEST)
r 1.050380651 _25_ RTR  --- 0 AODV 48 [0 ffffffff 1a 800] ------- [26:255 -1:255 29 0] [0x2 2 1 [37 0] [18 4]] (REQUEST)
r 1.050380774 _18_ RTR  --- 0 AODV 48 [0 ffffffff 1a 800] ------- [26:255 -1:255 29 0] [0x2 2 1 [37 0] [18 4]] (REQUEST)
r 1.050380774 _34_ RTR  --- 0 AODV 48 [0 ffffffff 1a 800] ------- [26:255 -1:255 29 0] [0x2 2 1 [37 0] [18 4]] (REQUEST)
r 1.050380833 _35_ RTR  --- 0 AODV 48 [0 ffffffff 1a 800] ------- [26:255 -1:255 29 0] [0x2 2 1 [37 0] [18 4]] (REQUEST)
r 1.050380835 _17_ RTR  --- 0 AODV 48 [0 ffffffff 1a 800] ------- [26:255 -1:255 29 0] [0x2 2 1 [37 0] [18 4]] (REQUEST)
r 1.050380835 _33_ RTR  --- 0 AODV 48 [0 ffffffff 1a 800] ------- [26:255 -1:255 29 0] [0x2 2 1 [37 0] [18 4]] (REQUEST)
r 1.050380857 _24_ RTR  --- 0 AODV 48 [0 ffffffff 1a 800] ------- [26:255 -1:255 29 0] [0x2 2 1 [37 0] [18 4]] (REQUEST)
r 1.050380974 _16_ RTR  --- 0 AODV 48 [0 ffffffff 1a 800] ------- [26:255 -1:255 29 0] [0x2 2 1 [37 0] [18 4]] (REQUEST)
r 1.050380974 _32_ RTR  --- 0 AODV 48 [0 ffffffff 1a 800] ------- [26:255 -1:255 29 0] [0x2 2 1 [37 0] [18 4]] (REQUEST)
r 1.050380974 _36_ RTR  --- 0 AODV 48 [0 ffffffff 1a 800] ------- [26:255 -1:255 29 0] [0x2 2 1 [37 0] [18 4]] (REQUEST)
r 1.050415102 _12_ RTR  --- 0 AODV 48 [0 ffffffff d 800] ------- [13:255 -1:255 29 0] [0x2 2 1 [37 0] [18 4]] (REQUEST)
r 1.050415105 _14_ RTR  --- 0 AODV 48 [0 ffffffff d 800] ------- [13:255 -1:255 29 0] [0x2 2 1 [37 0] [18 4]] (REQUEST)
r 1.050415229 _5_ RTR  --- 0 AODV 48 [0 ffffffff d 800] ------- [13:255 -1:255 29 0] [0x2 2 1 [37 0] [18 4]] (REQUEST)
r 1.050415229 _21_ RTR  --- 0 AODV 48 [0 ffffffff d 800] ------- [13:255 -1:255 29 0] [0x2 2 1 [37 0] [18 4]] (REQUEST)
r 1.050415287 _4_ RTR  --- 0 AODV 48 [0 ffffffff d 800] ------- [13:255 -1:255 29 0] [0x2 2 1 [37 0] [18 4]] (REQUEST)
r 1.050415289 _6_ RTR  --- 0 AODV 48 [0 ffffffff d 800] ------- [13:255 -1:255 29 0] [0x2 2 1 [37 0] [18 4]] (REQUEST)
r 1.050415289 _22_ RTR  --- 0 AODV 48 [0 ffffffff d 800] ------- [13:255 -1:255 29 0] [0x2 2 1 [37 0] [18 4]] (REQUEST)
r 1.050415312 _15_ RTR  --- 0 AODV 48 [0 ffffffff d 800] ------- [13:255 -1:255 29 0] [0x2 2 1 [37 0] [18 4]] (REQUEST)
r 1.050415429 _7_ RTR  --- 0 AODV 48 [0 ffffffff d 800] ------- [13:255 -1:255 29 0] [0x2 2 1 [37 0] [18 4]] (REQUEST)
r 1.050415429 _3_ RTR  --- 0 AODV 48 [0 ffffffff d 800] ------- [13:255 -1:255 29 0] [0x2 2 1 [37 0] [18 4]] (REQUEST)
r 1.050415429 _23_ RTR  --- 0 AODV 48 [0 ffffffff d 800] ------- [13:255 -1:255 29 0] [0x2 2 1 [37 0] [18 4]] (REQUEST)
s 1.050786412 _3_ RTR  --- 0 AODV 48 [0 ffffffff b 800] ------- [3:255 -1:255 29 0] [0x2 2 1 [1 0] [11 4]] (REQUEST)
s 1.051081150 _7_ RTR  --- 0 AODV 48 [0 ffffffff 16 800] ------- [7:255 -1:255 28 0] [0x2 3 1 [37 0] [18 4]] (REQUEST)
r 1.052718767 _14_ RTR  --- 0 AODV 48 [0 ffffffff f 800] ------- [15:255 -1:255 28 0] [0x2 3 1 [37 0] [18 4]] (REQUEST)
r 1.052718894 _7_ RTR  --- 0 AODV 48 [0 ffffffff f 800] ------- [15:255 -1:255 28 0] [0x2 3 1 [37 0] [18 4]] (REQUEST)
r 1.052718894 _23_ RTR  --- 0 AODV 48 [0 ffffffff f 800] ------- [15:255 -1:255 28 0] [0x2 3 1 [37 0] [18 4]] (REQUEST)
r 1.052718953 _6_ RTR  --- 0 AODV 48 [0 ffffffff f 800] ------- [15:255 -1:255 28 0] [0x2 3 1 [37 0] [18 4]] (REQUEST)
r 1.052718977 _13_ RTR  --- 0 AODV 48 [0 ffffffff f 800] ------- [15:255 -1:255 28 0] [0x2 3 1 [37 0] [18 4]] (REQUEST)
r 1.052877063 _39_ RTR  --- 0 AODV 48 [0 ffffffff 26 800] ------- [38:255 -1:255 28 0] [0x2 3 1 [37 0] [18 4]] (REQUEST)
r 1.052877066 _37_ RTR  --- 0 AODV 48 [0 ffffffff 26 800] ------- [38:255 -1:255 28 0] [0x2 3 1 [37 0] [18 4]] (REQUEST)
r 1.052877189 _30_ RTR  --- 0 AODV 48 [0 ffffffff 26 800] ------- [38:255 -1:255 28 0] [0x2 3 1 [37 0] [18 4]] (REQUEST)
r 1.052877250 _29_ RTR  --- 0 AODV 48 [0 ffffffff 26 800] ------- [38:255 -1:255 28 0] [0x2 3 1 [37 0] [18 4]] (REQUEST)
r 1.052877273 _36_ RTR  --- 0 AODV 48 [0 ffffffff 26 800] ------- [38:255 -1:255 28 0] [0x2 3 1 [37 0] [18 4]] (REQUEST)
r 1.052877483 _35_ RTR  --- 0 AODV 48 [0 ffffffff 26 800] ------- [38:255 -1:255 28 0] [0x2 3 1 [37 0] [18 4]] (REQUEST)
s 1.053409779 _9_ RTR  --- 0 AODV 48 [0 ffffffff b 800] ------- [9:255 -1:255 29 0] [0x2 2 1 [1 0] [11 4]] (REQUEST)
s 1.053685626 _10_ RTR  --- 0 AODV 48 [0 ffffffff b 800] ------- [10:255 -1:255 29 0] [0x2 2 1 [1 0] [11 4]] (REQUEST)
s 1.053926461 _2_ RTR  --- 0 AODV 48 [0 ffffffff b 800] ------- [2:255 -1:255 29 0] [0x2 2 1 [1 0] [11 4]] (REQUEST)
s 1.055080729 _12_ RTR  --- 0 AODV 48 [0 ffffffff b 800] ------- [12:255 -1:255 29 0] [0x2 2 1 [1 0] [11 4]] (REQUEST)
r 1.055476392 _30_ RTR  --- 0 AODV 48 [0 ffffffff 1f 800] ------- [31:255 -1:255 28 0] [0x2 3 1 [37 0] [18 4]] (REQUEST)
r 1.055476518 _23_ RTR  --- 0 AODV 48 [0 ffffffff 1f 800] ------- [31:255 -1:255 28 0] [0x2 3 1 [37 0] [18 4]] (REQUEST)
r 1.055476518 _39_ RTR  --- 0 AODV 48 [0 ffffffff 1f 800] ------- [31:255 -1:255 28 0] [0x2 3 1 [37 0] [18 4]] (REQUEST)
r 1.055476577 _38_ RTR  --- 0 AODV 48 [0 ffffffff 1f 800] ------- [31:255 -1:255 28 0] [0x2 3 1 [37 0] [18 4]] (REQUEST)
r 1.055534713 _18_ RTR  --- 0 AODV 48 [0 ffffffff 13 800] ------- [19:255 -1:255 29 0] [0x2 2 1 [37 0] [18 4]] (REQUEST)
r 1.055534716 _20_ RTR  --- 0 AODV 48 [0 ffffffff 13 800] ------- [19:255 -1:255 29 0] [0x2 2 1 [37 0] [18 4]] (REQUEST)
r 1.055534839 _11_ RTR  --- 0 AODV 48 [0 ffffffff 13 800] ------- [19:255 -1:255 29 0] [0x2 2 1 [37 0] [18 4]] (REQUEST)
r 1.055534839 _27_ RTR  --- 0 AODV 48 [0 ffffffff 13 800] ------- [19:255 -1:255 29 0] [0x2 2 1 [37 0] [18 4]] (REQUEST)
r 1.055534898 _10_ RTR  --- 0 AODV 48 [0 ffffffff 13 800] ------- [19:255 -1:255 29 0] [0x2 2 1 [37 0] [18 4]] (REQUEST)
r 1.055534898 _26_ RTR  --- 0 AODV 48 [0 ffffffff 13 800] ------- [19:255 -1:255 29 0] [0x2 2 1 [37 0] [18 4]] (REQUEST)
r 1.055534900 _12_ RTR  --- 0 AODV 48 [0 ffffffff 13 800] ------- [19:255 -1:255 29 0] [0x2 2 1 [37 0] [18 4]] (REQUEST)
r 1.055534923 _17_ RTR  --- 0 AODV 48 [0 ffffffff 13 800] ------- [19:255 -1:255 29 0] [0x2 2 1 [37 0] [18 4]] (REQUEST)
r 1.055535039 _9_ RTR  --- 0 AODV 48 [0 ffffffff 13 800] ------- [19:255 -1:255 29 0] [0x2 2 1 [37 0] [18 4]] (REQUEST)
r 1.055535039 _25_ RTR  --- 0 AODV 48 [0 ffffffff 13 800] ------- [19:255 -1:255 29 0] [0x2 2 1 [37 0] [18 4]] (REQUEST)
r 1.055535129 _16_ RTR  --- 0 AODV 48 [0 ffffffff 13 800] ------- [19:255 -1:255 29 0] [0x2 2 1 [37 0] [18 4]] (REQUEST)
r 1.055535173 _3_ RTR  --- 0 AODV 48 [0 ffffffff 13 800] ------- [19:255 -1:255 29 0] [0x2 2 1 [37 0] [18 4]] (REQUEST)
r 1.055535204 _2_ RTR  --- 0 AODV 48 [0 ffffffff 13 800] ------- [19:255 -1:255 29 0] [0x2 2 1 [37 0] [18 4]] (REQUEST)
r 1.055535213 _8_ RTR  --- 0 AODV 48 [0 ffffffff 13 800] ------- [19:255 -1:255 29 0] [0x2 2 1 [37 0] [18 4]] (REQUEST)
r 1.055535213 _24_ RTR  --- 0 AODV 48 [0 ffffffff 13 800] ------- [19:255 -1:255 29 0] [0x2 2 1 [37 0] [18 4]] (REQUEST)
r 1.055535292 _1_ RTR  --- 0 AODV 48 [0 ffffffff 13 800] ------- [19:255 -1:255 29 0] [0x2 2 1 [37 0] [18 4]] (REQUEST)
s 1.056010018 _4_ RTR  --- 0 AODV 48 [0 ffffffff b 800] ------- [4:255 -1:255 29 0] [0x2 2 1 [1 0] [11 4]] (REQUEST)
s 1.056174049 _5_ RTR  --- 0 AODV 48 [0 ffffffff b 800] ------- [5:255 -1:255 29 0] [0x2 2 1 [1 0] [11 4]] (REQUEST)
s 1.056544878 _28_ AGT  --- 2 tcp 40 [0 0 0 0] ------- [28:1 33:1 32 0] [0 0] 0 0
r 1.056544878 _28_ RTR  --- 2 tcp 40 [0 0 0 0] ------- [28:1 33:1 32 0] [0 0] 0 0
s 1.056544878 _28_ RTR  --- 0 AODV 48 [0 0 0 0] ------- [28:255 -1:255 30 0] [0x2 1 1 [33 0] [28 4]] (REQUEST)
r 1.058651357 _6_ RTR  --- 0 AODV 48 [0 ffffffff 7 800] ------- [7:255 -1:255 28 0] [0x2 3 1 [37 0] [18 4]] (REQUEST)
r 1.058651483 _15_ RTR  --- 0 AODV 48 [0 ffffffff 7 800] ------- [7:255 -1:255 28 0] [0x2 3 1 [37 0] [18 4]] (REQUEST)
r 1.058651542 _14_ RTR  --- 0 AODV 48 [0 ffffffff 7 800] ------- [7:255 -1:255 28 0] [0x2 3 1 [37 0] [18 4]] (REQUEST)
r 1.058887833 _11_ RTR  --- 0 AODV 48 [0 ffffffff a 800] ------- [10:255 -1:255 29 0] [0x2 2 1 [1 0] [11 4]] (REQUEST)
r 1.058887836 _9_ RTR  --- 0 AODV 48 [0 ffffffff a 800] ------- [10:255 -1:255 29 0] [0x2 2 1 [1 0] [11 4]] (REQUEST)
r 1.058887959 _2_ RTR  --- 0 AODV 48 [0 ffffffff a 800] ------- [10:255 -1:255 29 0] [0x2 2 1 [1 0] [11 4]] (REQUEST)
r 1.058887959 _18_ RTR  --- 0 AODV 48 [0 ffffffff a 800] ------- [10:255 -1:255 29 0] [0x2 2 1 [1 0] [11 4]] (REQUEST)
r 1.058888018 _3_ RTR  --- 0 AODV 48 [0 ffffffff a 800] ------- [10:255 -1:255 29 0] [0x2 2 1 [1 0] [11 4]] (REQUEST)
r 1.058888018 _19_ RTR  --- 0 AODV 48 [0 ffffffff a 800] ------- [10:255 -1:255 29 0] [0x2 2 1 [1 0] [11 4]] (REQUEST)
r 1.058888020 _1_ RTR  --- 0 AODV 48 [0 ffffffff a 800] ------- [10:255 -1:255 29 0] [0x2 2 1 [1 0] [11 4]] (REQUEST)
r 1.058888020 _17_ RTR  --- 0 AODV 48 [0 ffffffff a 800] ------- [10:255 -1:255 29 0] [0x2 2 1 [1 0] [11 4]] (REQUEST)