s 1.024285828 _3_ AGT  --- 0 tcp 40 [0 0 0 0] ------- [3:1 19:0 32 0] [0 0] 0 0
r 1.024285828 _3_ RTR  --- 0 tcp 40 [0 0 0 0] ------- [3:1 19:0 32 0] [0 0] 0 0
s 1.024285828 _3_ RTR  --- 0 AODV 48 [0 0 0 0] ------- [3:255 -1:255 30 0] [0x2 1 1 [19 0] [3 4]] (REQUEST)
r 1.028208161 _2_ RTR  --- 0 AODV 48 [0 ffffffff 3 800] ------- [3:255 -1:255 30 0] [0x2 1 1 [19 0] [3 4]] (REQUEST)
r 1.028208161 _4_ RTR  --- 0 AODV 48 [0 ffffffff 3 800] ------- [3:255 -1:255 30 0] [0x2 1 1 [19 0] [3 4]] (REQUEST)
r 1.028208245 _8_ RTR  --- 0 AODV 48 [0 ffffffff 3 800] ------- [3:255 -1:255 30 0] [0x2 1 1 [19 0] [3 4]] (REQUEST)
r 1.028208361 _7_ RTR  --- 0 AODV 48 [0 ffffffff 3 800] ------- [3:255 -1:255 30 0] [0x2 1 1 [19 0] [3 4]] (REQUEST)
r 1.028208361 _9_ RTR  --- 0 AODV 48 [0 ffffffff 3 800] ------- [3:255 -1:255 30 0] [0x2 1 1 [19 0] [3 4]] (REQUEST)
r 1.028208495 _1_ RTR  --- 0 AODV 48 [0 ffffffff 3 800] ------- [3:255 -1:255 30 0] [0x2 1 1 [19 0] [3 4]] (REQUEST)
r 1.028208614 _6_ RTR  --- 0 AODV 48 [0 ffffffff 3 800] ------- [3:255 -1:255 30 0] [0x2 1 1 [19 0] [3 4]] (REQUEST)
r 1.028208661 _13_ RTR  --- 0 AODV 48 [0 ffffffff 3 800] ------- [3:255 -1:255 30 0] [0x2 1 1 [19 0] [3 4]] (REQUEST)
s 1.029708246 _9_ RTR  --- 0 AODV 48 [0 ffffffff 3 800] ------- [9:255 -1:255 29 0] [0x2 2 1 [19 0] [3 4]] (REQUEST)
s 1.031944700 _13_ RTR  --- 0 AODV 48 [0 ffffffff 3 800] ------- [13:255 -1:255 29 0] [0x2 2 1 [19 0] [3 4]] (REQUEST)
s 1.032272270 _1_ RTR  --- 0 AODV 48 [0 ffffffff 3 800] ------- [1:255 -1:255 29 0] [0x2 2 1 [19 0] [3 4]] (REQUEST)
r 1.033630579 _8_ RTR  --- 0 AODV 48 [0 ffffffff 9 800] ------- [9:255 -1:255 29 0] [0x2 2 1 [19 0] [3 4]] (REQUEST)
r 1.033630662 _4_ RTR  --- 0 AODV 48 [0 ffffffff 9 800] ------- [9:255 -1:255 29 0] [0x2 2 1 [19 0] [3 4]] (REQUEST)
r 1.033630662 _14_ RTR  --- 0 AODV 48 [0 ffffffff 9 800] ------- [9:255 -1:255 29 0] [0x2 2 1 [19 0] [3 4]] (REQUEST)
r 1.033630779 _3_ RTR  --- 0 AODV 48 [0 ffffffff 9 800] ------- [9:255 -1:255 29 0] [0x2 2 1 [19 0] [3 4]] (REQUEST)
r 1.033630779 _13_ RTR  --- 0 AODV 48 [0 ffffffff 9 800] ------- [9:255 -1:255 29 0] [0x2 2 1 [19 0] [3 4]] (REQUEST)
r 1.033630912 _7_ RTR  --- 0 AODV 48 [0 ffffffff 9 800] ------- [9:255 -1:255 29 0] [0x2 2 1 [19 0] [3 4]] (REQUEST)
r 1.033631032 _2_ RTR  --- 0 AODV 48 [0 ffffffff 9 800] ------- [9:255 -1:255 29 0] [0x2 2 1 [19 0] [3 4]] (REQUEST)
r 1.033631032 _12_ RTR  --- 0 AODV 48 [0 ffffffff 9 800] ------- [9:255 -1:255 29 0] [0x2 2 1 [19 0] [3 4]] (REQUEST)
r 1.033631079 _19_ RTR  --- 0 AODV 48 [0 ffffffff 9 800] ------- [9:255 -1:255 29 0] [0x2 2 1 [19 0] [3 4]] (REQUEST)
s 1.033631079 _19_ RTR  --- 0 AODV 44 [0 0 0 0] ------- [19:255 3:255 30 9] [0x4 1 [19 4] 10.000000] (REPLY)
s 1.033669844 _6_ RTR  --- 0 AODV 48 [0 ffffffff 3 800] ------- [6:255 -1:255 29 0] [0x2 2 1 [19 0] [3 4]] (REQUEST)
s 1.033792247 _2_ RTR  --- 0 AODV 48 [0 ffffffff 3 800] ------- [2:255 -1:255 29 0] [0x2 2 1 [19 0] [3 4]] (REQUEST)
s 1.034843621 _7_ RTR  --- 0 AODV 48 [0 ffffffff 3 800] ------- [7:255 -1:255 29 0] [0x2 2 1 [19 0] [3 4]] (REQUEST)
r 1.035874603 _0_ RTR  --- 0 AODV 48 [0 ffffffff 1 800] ------- [1:255 -1:255 29 0] [0x2 2 1 [19 0] [3 4]] (REQUEST)
r 1.035874603 _2_ RTR  --- 0 AODV 48 [0 ffffffff 1 800] ------- [1:255 -1:255 29 0] [0x2 2 1 [19 0] [3 4]] (REQUEST)
r 1.035874686 _6_ RTR  --- 0 AODV 48 [0 ffffffff 1 800] ------- [1:255 -1:255 29 0] [0x2 2 1 [19 0] [3 4]] (REQUEST)
r 1.035874803 _5_ RTR  --- 0 AODV 48 [0 ffffffff 1 800] ------- [1:255 -1:255 29 0] [0x2 2 1 [19 0] [3 4]] (REQUEST)
r 1.035874803 _7_ RTR  --- 0 AODV 48 [0 ffffffff 1 800] ------- [1:255 -1:255 29 0] [0x2 2 1 [19 0] [3 4]] (REQUEST)
r 1.035874936 _3_ RTR  --- 0 AODV 48 [0 ffffffff 1 800] ------- [1:255 -1:255 29 0] [0x2 2 1 [19 0] [3 4]] (REQUEST)
r 1.035875056 _8_ RTR  --- 0 AODV 48 [0 ffffffff 1 800] ------- [1:255 -1:255 29 0] [0x2 2 1 [19 0] [3 4]] (REQUEST)
r 1.035875103 _11_ RTR  --- 0 AODV 48 [0 ffffffff 1 800] ------- [1:255 -1:255 29 0] [0x2 2 1 [19 0] [3 4]] (REQUEST)
s 1.036045995 _8_ RTR  --- 0 AODV 48 [0 ffffffff 3 800] ------- [8:255 -1:255 29 0] [0x2 2 1 [19 0] [3 4]] (REQUEST)
s 1.036194517 _11_ RTR  --- 0 AODV 48 [0 ffffffff 1 800] ------- [11:255 -1:255 28 0] [0x2 3 1 [19 0] [3 4]] (REQUEST)
s 1.036363985 _4_ RTR  --- 0 AODV 48 [0 ffffffff 3 800] ------- [4:255 -1:255 29 0] [0x2 2 1 [19 0] [3 4]] (REQUEST)
s 1.037586993 _5_ RTR  --- 0 AODV 48 [0 ffffffff 1 800] ------- [5:255 -1:255 28 0] [0x2 3 1 [19 0] [3 4]] (REQUEST)
r 1.038674580 _1_ RTR  --- 0 AODV 48 [0 ffffffff 2 800] ------- [2:255 -1:255 29 0] [0x2 2 1 [19 0] [3 4]] (REQUEST)
r 1.038674580 _3_ RTR  --- 0 AODV 48 [0 ffffffff 2 800] ------- [2:255 -1:255 29 0] [0x2 2 1 [19 0] [3 4]] (REQUEST)
r 1.038674664 _7_ RTR  --- 0 AODV 48 [0 ffffffff 2 800] ------- [2:255 -1:255 29 0] [0x2 2 1 [19 0] [3 4]] (REQUEST)
r 1.038674781 _6_ RTR  --- 0 AODV 48 [0 ffffffff 2 800] ------- [2:255 -1:255 29 0] [0x2 2 1 [19 0] [3 4]] (REQUEST)
r 1.038674914 _0_ RTR  --- 0 AODV 48 [0 ffffffff 2 800] ------- [2:255 -1:255 29 0] [0x2 2 1 [19 0] [3 4]] (REQUEST)
r 1.038674914 _4_ RTR  --- 0 AODV 48 [0 ffffffff 2 800] ------- [2:255 -1:255 29 0] [0x2 2 1 [19 0] [3 4]] (REQUEST)
r 1.038675033 _5_ RTR  --- 0 AODV 48 [0 ffffffff 2 800] ------- [2:255 -1:255 29 0] [0x2 2 1 [19 0] [3 4]] (REQUEST)
s 1.040587561 _14_ RTR  --- 0 AODV 48 [0 ffffffff 9 800] ------- [14:255 -1:255 28 0] [0x2 3 1 [19 0] [3 4]] (REQUEST)
r 1.040926318 _3_ RTR  --- 0 AODV 48 [0 ffffffff 4 800] ------- [4:255 -1:255 29 0] [0x2 2 1 [19 0] [3 4]] (REQUEST)
r 1.040926401 _9_ RTR  --- 0 AODV 48 [0 ffffffff 4 800] ------- [4:255 -1:255 29 0] [0x2 2 1 [19 0] [3 4]] (REQUEST)
r 1.040926518 _8_ RTR  --- 0 AODV 48 [0 ffffffff 4 800] ------- [4:255 -1:255 29 0] [0x2 2 1 [19 0] [3 4]] (REQUEST)
r 1.040926651 _2_ RTR  --- 0 AODV 48 [0 ffffffff 4 800] ------- [4:255 -1:255 29 0] [0x2 2 1 [19 0] [3 4]] (REQUEST)
r 1.040926771 _7_ RTR  --- 0 AODV 48 [0 ffffffff 4 800] ------- [4:255 -1:255 29 0] [0x2 2 1 [19 0] [3 4]] (REQUEST)
r 1.040926818 _14_ RTR  --- 0 AODV 48 [0 ffffffff 4 800] ------- [4:255 -1:255 29 0] [0x2 2 1 [19 0] [3 4]] (REQUEST)
s 1.042750424 _12_ RTR  --- 0 AODV 48 [0 ffffffff 9 800] ------- [12:255 -1:255 28 0] [0x2 3 1 [19 0] [3 4]] (REQUEST)
r 1.043764851 _10_ RTR  --- 0 AODV 48 [0 ffffffff b 800] ------- [11:255 -1:255 28 0] [0x2 3 1 [19 0] [3 4]] (REQUEST)
r 1.043764851 _12_ RTR  --- 0 AODV 48 [0 ffffffff b 800] ------- [11:255 -1:255 28 0] [0x2 3 1 [19 0] [3 4]] (REQUEST)
r 1.043764934 _6_ RTR  --- 0 AODV 48 [0 ffffffff b 800] ------- [11:255 -1:255 28 0] [0x2 3 1 [19 0] [3 4]] (REQUEST)
r 1.043764934 _16_ RTR  --- 0 AODV 48 [0 ffffffff b 800] ------- [11:255 -1:255 28 0] [0x2 3 1 [19 0] [3 4]] (REQUEST)
r 1.043765051 _7_ RTR  --- 0 AODV 48 [0 ffffffff b 800] ------- [11:255 -1:255 28 0] [0x2 3 1 [19 0] [3 4]] (REQUEST)
r 1.043765051 _5_ RTR  --- 0 AODV 48 [0 ffffffff b 800] ------- [11:255 -1:255 28 0] [0x2 3 1 [19 0] [3 4]] (REQUEST)
r 1.043765051 _15_ RTR  --- 0 AODV 48 [0 ffffffff b 800] ------- [11:255 -1:255 28 0] [0x2 3 1 [19 0] [3 4]] (REQUEST)
r 1.043765051 _17_ RTR  --- 0 AODV 48 [0 ffffffff b 800] ------- [11:255 -1:255 28 0] [0x2 3 1 [19 0] [3 4]] (REQUEST)
r 1.043765184 _13_ RTR  --- 0 AODV 48 [0 ffffffff b 800] ------- [11:255 -1:255 28 0] [0x2 3 1 [19 0] [3 4]] (REQUEST)
r 1.043765304 _8_ RTR  --- 0 AODV 48 [0 ffffffff b 800] ------- [11:255 -1:255 28 0] [0x2 3 1 [19 0] [3 4]] (REQUEST)
r 1.043765304 _18_ RTR  --- 0 AODV 48 [0 ffffffff b 800] ------- [11:255 -1:255 28 0] [0x2 3 1 [19 0] [3 4]] (REQUEST)
r 1.043765351 _1_ RTR  --- 0 AODV 48 [0 ffffffff b 800] ------- [11:255 -1:255 28 0] [0x2 3 1 [19 0] [3 4]] (REQUEST)
s 1.043932921 _0_ RTR  --- 0 AODV 48 [0 ffffffff 1 800] ------- [0:255 -1:255 28 0] [0x2 3 1 [19 0] [3 4]] (REQUEST)
s 1.045350441 _18_ RTR  --- 0 AODV 48 [0 ffffffff b 800] ------- [18:255 -1:255 27 0] [0x2 4 1 [19 0] [3 4]] (REQUEST)
r 1.046672757 _11_ RTR  --- 0 AODV 48 [0 ffffffff c 800] ------- [12:255 -1:255 28 0] [0x2 3 1 [19 0] [3 4]] (REQUEST)
s 1.048612592 _10_ RTR  --- 0 AODV 48 [0 ffffffff b 800] ------- [10:255 -1:255 27 0] [0x2 4 1 [19 0] [3 4]] (REQUEST)
s 1.049993950 _15_ RTR  --- 0 AODV 48 [0 ffffffff b 800] ------- [15:255 -1:255 27 0] [0x2 4 1 [19 0] [3 4]] (REQUEST)
r 1.050144328 _7_ RTR  --- 0 AODV 48 [0 ffffffff 8 800] ------- [8:255 -1:255 29 0] [0x2 2 1 [19 0] [3 4]] (REQUEST)
r 1.050144328 _9_ RTR  --- 0 AODV 48 [0 ffffffff 8 800] ------- [8:255 -1:255 29 0] [0x2 2 1 [19 0] [3 4]] (REQUEST)
r 1.050144412 _3_ RTR  --- 0 AODV 48 [0 ffffffff 8 800] ------- [8:255 -1:255 29 0] [0x2 2 1 [19 0] [3 4]] (REQUEST)
r 1.050144529 _4_ RTR  --- 0 AODV 48 [0 ffffffff 8 800] ------- [8:255 -1:255 29 0] [0x2 2 1 [19 0] [3 4]] (REQUEST)
r 1.050144529 _2_ RTR  --- 0 AODV 48 [0 ffffffff 8 800] ------- [8:255 -1:255 29 0] [0x2 2 1 [19 0] [3 4]] (REQUEST)
r 1.050144781 _1_ RTR  --- 0 AODV 48 [0 ffffffff 8 800] ------- [8:255 -1:255 29 0] [0x2 2 1 [19 0] [3 4]] (REQUEST)
r 1.050232774 _17_ RTR  --- 0 AODV 48 [0 ffffffff 12 800] ------- [18:255 -1:255 27 0] [0x2 4 1 [19 0] [3 4]] (REQUEST)
r 1.050232774 _19_ RTR  --- 0 AODV 48 [0 ffffffff 12 800] ------- [18:255 -1:255 27 0] [0x2 4 1 [19 0] [3 4]] (REQUEST)
s 1.052272879 _17_ RTR  --- 0 AODV 48 [0 ffffffff b 800] ------- [17:255 -1:255 27 0] [0x2 4 1 [19 0] [3 4]] (REQUEST)
r 1.052534925 _11_ RTR  --- 0 AODV 48 [0 ffffffff a 800] ------- [10:255 -1:255 27 0] [0x2 4 1 [19 0] [3 4]] (REQUEST)
r 1.052535008 _5_ RTR  --- 0 AODV 48 [0 ffffffff a 800] ------- [10:255 -1:255 27 0] [0x2 4 1 [19 0] [3 4]] (REQUEST)
r 1.052535008 _15_ RTR  --- 0 AODV 48 [0 ffffffff a 800] ------- [10:255 -1:255 27 0] [0x2 4 1 [19 0] [3 4]] (REQUEST)
r 1.052535125 _6_ RTR  --- 0 AODV 48 [0 ffffffff a 800] ------- [10:255 -1:255 27 0] [0x2 4 1 [19 0] [3 4]] (REQUEST)
r 1.052535125 _16_ RTR  --- 0 AODV 48 [0 ffffffff a 800] ------- [10:255 -1:255 27 0] [0x2 4 1 [19 0] [3 4]] (REQUEST)
r 1.052535258 _12_ RTR  --- 0 AODV 48 [0 ffffffff a 800] ------- [10:255 -1:255 27 0] [0x2 4 1 [19 0] [3 4]] (REQUEST)
r 1.052535378 _7_ RTR  --- 0 AODV 48 [0 ffffffff a 800] ------- [10:255 -1:255 27 0] [0x2 4 1 [19 0] [3 4]] (REQUEST)
r 1.052535378 _17_ RTR  --- 0 AODV 48 [0 ffffffff a 800] ------- [10:255 -1:255 27 0] [0x2 4 1 [19 0] [3 4]] (REQUEST)
r 1.052535425 _0_ RTR  --- 0 AODV 48 [0 ffffffff a 800] ------- [10:255 -1:255 27 0] [0x2 4 1 [19 0] [3 4]] (REQUEST)
s 1.052732943 _16_ RTR  --- 0 AODV 48 [0 ffffffff b 800] ------- [16:255 -1:255 27 0] [0x2 4 1 [19 0] [3 4]] (REQUEST)
s 1.054650303 _7_ AGT  --- 1 tcp 40 [0 0 0 0] ------- [7:0 2:0 32 0] [0 0] 0 0
r 1.054650303 _7_ RTR  --- 1 tcp 40 [0 0 0 0] ------- [7:0 2:0 32 0] [0 0] 0 0
s 1.054650303 _7_ RTR  --- 0 AODV 48 [0 0 0 0] ------- [7:255 -1:255 30 0] [0x2 1 1 [2 0] [7 4]] (REQUEST)
r 1.055875212 _16_ RTR  --- 0 AODV 48 [0 ffffffff 11 800] ------- [17:255 -1:255 27 0] [0x2 4 1 [19 0] [3 4]] (REQUEST)
r 1.055875212 _18_ RTR  --- 0 AODV 48 [0 ffffffff 11 800] ------- [17:255 -1:255 27 0] [0x2 4 1 [19 0] [3 4]] (REQUEST)
r 1.055875296 _12_ RTR  --- 0 AODV 48 [0 ffffffff 11 800] ------- [17:255 -1:255 27 0] [0x2 4 1 [19 0] [3 4]] (REQUEST)
r 1.055875413 _13_ RTR  --- 0 AODV 48 [0 ffffffff 11 800] ------- [17:255 -1:255 27 0] [0x2 4 1 [19 0] [3 4]] (REQUEST)
r 1.055875413 _11_ RTR  --- 0 AODV 48 [0 ffffffff 11 800] ------- [17:255 -1:255 27 0] [0x2 4 1 [19 0] [3 4]] (REQUEST)
r 1.055875546 _15_ RTR  --- 0 AODV 48 [0 ffffffff 11 800] ------- [17:255 -1:255 27 0] [0x2 4 1 [19 0] [3 4]] (REQUEST)
r 1.055875546 _19_ RTR  --- 0 AODV 48 [0 ffffffff 11 800] ------- [17:255 -1:255 27 0] [0x2 4 1 [19 0] [3 4]] (REQUEST)
r 1.055875665 _14_ RTR  --- 0 AODV 48 [0 ffffffff 11 800] ------- [17:255 -1:255 27 0] [0x2 4 1 [19 0] [3 4]] (REQUEST)
r 1.055875665 _10_ RTR  --- 0 AODV 48 [0 ffffffff 11 800] ------- [17:255 -1:255 27 0] [0x2 4 1 [19 0] [3 4]] (REQUEST)
r 1.055875712 _7_ RTR  --- 0 AODV 48 [0 ffffffff 11 800] ------- [17:255 -1:255 27 0] [0x2 4 1 [19 0] [3 4]] (REQUEST)
r 1.058477954 _6_ RTR  --- 0 AODV 48 [0 ffffffff 7 800] ------- [7:255 -1:255 29 0] [0x2 2 1 [19 0] [3 4]] (REQUEST)
r 1.058477954 _8_ RTR  --- 0 AODV 48 [0 ffffffff 7 800] ------- [7:255 -1:255 29 0] [0x2 2 1 [19 0] [3 4]] (REQUEST)
r 1.058478037 _2_ RTR  --- 0 AODV 48 [0 ffffffff 7 800] ------- [7:255 -1:255 29 0] [0x2 2 1 [19 0] [3 4]] (REQUEST)
r 1.058478037 _12_ RTR  --- 0 AODV 48 [0 ffffffff 7 800] ------- [7:255 -1:255 29 0] [0x2 2 1 [19 0] [3 4]] (REQUEST)
r 1.058478154 _3_ RTR  --- 0 AODV 48 [0 ffffffff 7 800] ------- [7:255 -1:255 29 0] [0x2 2 1 [19 0] [3 4]] (REQUEST)
r 1.058478154 _1_ RTR  --- 0 AODV 48 [0 ffffffff 7 800] ------- [7:255 -1:255 29 0] [0x2 2 1 [19 0] [3 4]] (REQUEST)
r 1.058478154 _11_ RTR  --- 0 AODV 48 [0 ffffffff 7 800] ------- [7:255 -1:255 29 0] [0x2 2 1 [19 0] [3 4]] (REQUEST)
r 1.058478154 _13_ RTR  --- 0 AODV 48 [0 ffffffff 7 800] ------- [7:255 -1:255 29 0] [0x2 2 1 [19 0] [3 4]] (REQUEST)
r 1.058478287 _5_ RTR  --- 0 AODV 48 [0 ffffffff 7 800] ------- [7:255 -1:255 29 0] [0x2 2 1 [19 0] [3 4]] (REQUEST)
r 1.058478287 _9_ RTR  --- 0 AODV 48 [0 ffffffff 7 800] ------- [7:255 -1:255 29 0] [0x2 2 1 [19 0] [3 4]] (REQUEST)
r 1.058478407 _4_ RTR  --- 0 AODV 48 [0 ffffffff 7 800] ------- [7:255 -1:255 29 0] [0x2 2 1 [19 0] [3 4]] (REQUEST)
r 1.058478407 _0_ RTR  --- 0 AODV 48 [0 ffffffff 7 800] ------- [7:255 -1:255 29 0] [0x2 2 1 [19 0] [3 4]] (REQUEST)
r 1.058478407 _10_ RTR  --- 0 AODV 48 [0 ffffffff 7 800] ------- [7:255 -1:255 29 0] [0x2 2 1 [19 0] [3 4]] (REQUEST)
r 1.058478407 _14_ RTR  --- 0 AODV 48 [0 ffffffff 7 800] ------- [7:255 -1:255 29 0] [0x2 2 1 [19 0] [3 4]] (REQUEST)
r 1.058478454 _17_ RTR  --- 0 AODV 48 [0 ffffffff 7 800] ------- [7:255 -1:255 29 0] [0x2 2 1 [19 0] [3 4]] (REQUEST)
r 1.060700283 _16_ RTR  --- 0 AODV 48 [0 ffffffff f 800] ------- [15:255 -1:255 27 0] [0x2 4 1 [19 0] [3 4]] (REQUEST)
r 1.060700366 _10_ RTR  --- 0 AODV 48 [0 ffffffff f 800] ------- [15:255 -1:255 27 0] [0x2 4 1 [19 0] [3 4]] (REQUEST)
r 1.060700483 _11_ RTR  --- 0 AODV 48 [0 ffffffff f 800] ------- [15:255 -1:255 27 0] [0x2 4 1 [19 0] [3 4]] (REQUEST)
r 1.060700616 _17_ RTR  --- 0 AODV 48 [0 ffffffff f 800] ------- [15:255 -1:255 27 0] [0x2 4 1 [19 0] [3 4]] (REQUEST)
r 1.060700736 _12_ RTR  --- 0 AODV 48 [0 ffffffff f 800] ------- [15:255 -1:255 27 0] [0x2 4 1 [19 0] [3 4]] (REQUEST)
r 1.060700783 _5_ RTR  --- 0 AODV 48 [0 ffffffff f 800] ------- [15:255 -1:255 27 0] [0x2 4 1 [19 0] [3 4]] (REQUEST)
r 1.062989954 _6_ RTR  --- 0 AODV 48 [0 ffffffff 7 800] ------- [7:255 -1:255 30 0] [0x2 1 1 [2 0] [7 4]] (REQUEST)
r 1.062989954 _8_ RTR  --- 0 AODV 48 [0 ffffffff 7 800] ------- [7:255 -1:255 30 0] [0x2 1 1 [2 0] [7 4]] (REQUEST)
r 1.062990037 _2_ RTR  --- 0 AODV 48 [0 ffffffff 7 800] ------- [7:255 -1:255 30 0] [0x2 1 1 [2 0] [7 4]] (REQUEST)
r 1.062990037 _12_ RTR  --- 0 AODV 48 [0 ffffffff 7 800] ------- [7:255 -1:255 30 0] [0x2 1 1 [2 0] [7 4]] (REQUEST)
s 1.062990037 _2_ RTR  --- 0 AODV 44 [0 0 0 0] ------- [2:255 7:255 30 7] [0x4 1 [2 4] 10.000000] (REPLY)
r 1.062990154 _3_ RTR  --- 0 AODV 48 [0 ffffffff 7 800] ------- [7:255 -1:255 30 0] [0x2 1 1 [2 0] [7 4]] (REQUEST)
r 1.062990154 _1_ RTR  --- 0 AODV 48 [0 ffffffff 7 800] ------- [7:255 -1:255 30 0] [0x2 1 1 [2 0] [7 4]] (REQUEST)
r 1.062990154 _11_ RTR  --- 0 AODV 48 [0 ffffffff 7 800] ------- [7:255 -1:255 30 0] [0x2 1 1 [2 0] [7 4]] (REQUEST)
r 1.062990154 _13_ RTR  --- 0 AODV 48 [0 ffffffff 7 800] ------- [7:255 -1:255 30 0] [0x2 1 1 [2 0] [7 4]] (REQUEST)
r 1.062990287 _5_ RTR  --- 0 AODV 48 [0 ffffffff 7 800] ------- [7:255 -1:255 30 0] [0x2 1 1 [2 0] [7 4]] (REQUEST)
r 1.062990287 _9_ RTR  --- 0 AODV 48 [0 ffffffff 7 800] ------- [7:255 -1:255 30 0] [0x2 1 1 [2 0] [7 4]] (REQUEST)
r 1.062990407 _4_ RTR  --- 0 AODV 48 [0 ffffffff 7 800] ------- [7:255 -1:255 30 0] [0x2 1 1 [2 0] [7 4]] (REQUEST)
r 1.062990407 _0_ RTR  --- 0 AODV 48 [0 ffffffff 7 800] ------- [7:255 -1:255 30 0] [0x2 1 1 [2 0] [7 4]] (REQUEST)
r 1.062990407 _10_ RTR  --- 0 AODV 48 [0 ffffffff 7 800] ------- [7:255 -1:255 30 0] [0x2 1 1 [2 0] [7 4]] (REQUEST)
r 1.062990407 _14_ RTR  --- 0 AODV 48 [0 ffffffff 7 800] ------- [7:255 -1:255 30 0] [0x2 1 1 [2 0] [7 4]] (REQUEST)
r 1.062990454 _17_ RTR  --- 0 AODV 48 [0 ffffffff 7 800] ------- [7:255 -1:255 30 0] [0x2 1 1 [2 0] [7 4]] (REQUEST)
s 1.063655257 _0_ RTR  --- 0 AODV 48 [0 ffffffff 7 800] ------- [0:255 -1:255 29 0] [0x2 2 1 [2 0] [7 4]] (REQUEST)
s 1.064508093 _13_ RTR  --- 0 AODV 48 [0 ffffffff 7 800] ------- [13:255 -1:255 29 0] [0x2 2 1 [2 0] [7 4]] (REQUEST)
s 1.067408385 _6_ RTR  --- 0 AODV 48 [0 ffffffff 7 800] ------- [6:255 -1:255 29 0] [0x2 2 1 [2 0] [7 4]] (REQUEST)
s 1.067589775 _12_ RTR  --- 0 AODV 48 [0 ffffffff 7 800] ------- [12:255 -1:255 29 0] [0x2 2 1 [2 0] [7 4]] (REQUEST)
s 1.068170705 _14_ RTR  --- 0 AODV 48 [0 ffffffff 7 800] ------- [14:255 -1:255 29 0] [0x2 2 1 [2 0] [7 4]] (REQUEST)
s 1.068343933 _4_ RTR  --- 0 AODV 48 [0 ffffffff 7 800] ------- [4:255 -1:255 29 0] [0x2 2 1 [2 0] [7 4]] (REQUEST)
s 1.068392604 _9_ RTR  --- 0 AODV 48 [0 ffffffff 7 800] ------- [9:255 -1:255 29 0] [0x2 2 1 [2 0] [7 4]] (REQUEST)
r 1.068751276 _15_ RTR  --- 0 AODV 48 [0 ffffffff 10 800] ------- [16:255 -1:255 27 0] [0x2 4 1 [19 0] [3 4]] (REQUEST)
r 1.068751276 _17_ RTR  --- 0 AODV 48 [0 ffffffff 10 800] ------- [16:255 -1:255 27 0] [0x2 4 1 [19 0] [3 4]] (REQUEST)
r 1.068751359 _11_ RTR  --- 0 AODV 48 [0 ffffffff 10 800] ------- [16:255 -1:255 27 0] [0x2 4 1 [19 0] [3 4]] (REQUEST)
r 1.068751476 _12_ RTR  --- 0 AODV 48 [0 ffffffff 10 800] ------- [16:255 -1:255 27 0] [0x2 4 1 [19 0] [3 4]] (REQUEST)
r 1.068751476 _10_ RTR  --- 0 AODV 48 [0 ffffffff 10 800] ------- [16:255 -1:255 27 0] [0x2 4 1 [19 0] [3 4]] (REQUEST)
r 1.068751609 _18_ RTR  --- 0 AODV 48 [0 ffffffff 10 800] ------- [16:255 -1:255 27 0] [0x2 4 1 [19 0] [3 4]] (REQUEST)
r 1.068751729 _13_ RTR  --- 0 AODV 48 [0 ffffffff 10 800] ------- [16:255 -1:255 27 0] [0x2 4 1 [19 0] [3 4]] (REQUEST)
r 1.068751776 _6_ RTR  --- 0 AODV 48 [0 ffffffff 10 800] ------- [16:255 -1:255 27 0] [0x2 4 1 [19 0] [3 4]] (REQUEST)
s 1.071800250 _17_ RTR  --- 0 AODV 48 [0 ffffffff 7 800] ------- [17:255 -1:255 29 0] [0x2 2 1 [2 0] [7 4]] (REQUEST)
s 1.072004536 _3_ RTR  --- 0 AODV 48 [0 ffffffff 7 800] ------- [3:255 -1:255 29 0] [0x2 2 1 [2 0] [7 4]] (REQUEST)
s 1.072047225 _11_ RTR  --- 0 AODV 48 [0 ffffffff 7 800] ------- [11:255 -1:255 29 0] [0x2 2 1 [2 0] [7 4]] (REQUEST)
r 1.072315021 _4_ RTR  --- 0 AODV 48 [0 ffffffff 9 800] ------- [9:255 -1:255 29 0] [0x2 2 1 [2 0] [7 4]] (REQUEST)
s 1.072389143 _8_ RTR  --- 0 AODV 48 [0 ffffffff 7 800] ------- [8:255 -1:255 29 0] [0x2 2 1 [2 0] [7 4]] (REQUEST)
s 1.072440528 _5_ RTR  --- 0 AODV 48 [0 ffffffff 7 800] ------- [5:255 -1:255 29 0] [0x2 2 1 [2 0] [7 4]] (REQUEST)
r 1.072472108 _11_ RTR  --- 0 AODV 48 [0 ffffffff c 800] ------- [12:255 -1:255 29 0] [0x2 2 1 [2 0] [7 4]] (REQUEST)
r 1.072472308 _16_ RTR  --- 0 AODV 48 [0 ffffffff c 800] ------- [12:255 -1:255 29 0] [0x2 2 1 [2 0] [7 4]] (REQUEST)
s 1.072567349 _1_ RTR  --- 0 AODV 48 [0 ffffffff 7 800] ------- [1:255 -1:255 29 0] [0x2 2 1 [2 0] [7 4]] (REQUEST)
s 1.072708713 _10_ RTR  --- 0 AODV 48 [0 ffffffff 7 800] ------- [10:255 -1:255 29 0] [0x2 2 1 [2 0] [7 4]] (REQUEST)
s 1.073011469 _16_ RTR  --- 0 AODV 48 [0 ffffffff c 800] ------- [16:255 -1:255 28 0] [0x2 3 1 [2 0] [7 4]] (REQUEST)
r 1.074954266 _3_ RTR  --- 0 AODV 48 [0 ffffffff 4 800] ------- [4:255 -1:255 29 0] [0x2 2 1 [2 0] [7 4]] (REQUEST)
r 1.074954349 _9_ RTR  --- 0 AODV 48 [0 ffffffff 4 800] ------- [4:255 -1:255 29 0] [0x2 2 1 [2 0] [7 4]] (REQUEST)
r 1.074954466 _8_ RTR  --- 0 AODV 48 [0 ffffffff 4 800] ------- [4:255 -1:255 29 0] [0x2 2 1 [2 0] [7 4]] (REQUEST)
r 1.074954599 _2_ RTR  --- 0 AODV 48 [0 ffffffff 4 800] ------- [4:255 -1:255 29 0] [0x2 2 1 [2 0] [7 4]] (REQUEST)
r 1.074954719 _7_ RTR  --- 0 AODV 48 [0 ffffffff 4 800] ------- [4:255 -1:255 29 0] [0x2 2 1 [2 0] [7 4]] (REQUEST)
r 1.074954766 _14_ RTR  --- 0 AODV 48 [0 ffffffff 4 800] ------- [4:255 -1:255 29 0] [0x2 2 1 [2 0] [7 4]] (REQUEST)
r 1.077577683 _0_ RTR  --- 0 AODV 48 [0 ffffffff 1 800] ------- [1:255 -1:255 29 0] [0x2 2 1 [2 0] [7 4]] (REQUEST)
r 1.077577683 _2_ RTR  --- 0 AODV 48 [0 ffffffff 1 800] ------- [1:255 -1:255 29 0] [0x2 2 1 [2 0] [7 4]] (REQUEST)
r 1.077577766 _6_ RTR  --- 0 AODV 48 [0 ffffffff 1 800] ------- [1:255 -1:255 29 0] [0x2 2 1 [2 0] [7 4]] (REQUEST)
r 1.077577883 _5_ RTR  --- 0 AODV 48 [0 ffffffff 1 800] ------- [1:255 -1:255 29 0] [0x2 2 1 [2 0] [7 4]] (REQUEST)
r 1.077577883 _7_ RTR  --- 0 AODV 48 [0 ffffffff 1 800] ------- [1:255 -1:255 29 0] [0x2 2 1 [2 0] [7 4]] (REQUEST)
r 1.077578016 _3_ RTR  --- 0 AODV 48 [0 ffffffff 1 800] ------- [1:255 -1:255 29 0] [0x2 2 1 [2 0] [7 4]] (REQUEST)
r 1.077578136 _8_ RTR  --- 0 AODV 48 [0 ffffffff 1 800] ------- [1:255 -1:255 29 0] [0x2 2 1 [2 0] [7 4]] (REQUEST)
r 1.077578183 _11_ RTR  --- 0 AODV 48 [0 ffffffff 1 800] ------- [1:255 -1:255 29 0] [0x2 2 1 [2 0] [7 4]] (REQUEST)
r 1.081175476 _9_ RTR  --- 0 AODV 48 [0 ffffffff 8 800] ------- [8:255 -1:255 29 0] [0x2 2 1 [2 0] [7 4]] (REQUEST)
r 1.084194718 _5_ RTR  --- 0 AODV 48 [0 ffffffff 6 800] ------- [6:255 -1:255 29 0] [0x2 2 1 [2 0] [7 4]] (REQUEST)
r 1.084194718 _7_ RTR  --- 0 AODV 48 [0 ffffffff 6 800] ------- [6:255 -1:255 29 0] [0x2 2 1 [2 0] [7 4]] (REQUEST)
r 1.084194802 _1_ RTR  --- 0 AODV 48 [0 ffffffff 6 800] ------- [6:255 -1:255 29 0] [0x2 2 1 [2 0] [7 4]] (REQUEST)
r 1.084194802 _11_ RTR  --- 0 AODV 48 [0 ffffffff 6 800] ------- [6:255 -1:255 29 0] [0x2 2 1 [2 0] [7 4]] (REQUEST)
r 1.084194918 _2_ RTR  --- 0 AODV 48 [0 ffffffff 6 800] ------- [6:255 -1:255 29 0] [0x2 2 1 [2 0] [7 4]] (REQUEST)
r 1.084194918 _0_ RTR  --- 0 AODV 48 [0 ffffffff 6 800] ------- [6:255 -1:255 29 0] [0x2 2 1 [2 0] [7 4]] (REQUEST)
r 1.084194918 _10_ RTR  --- 0 AODV 48 [0 ffffffff 6 800] ------- [6:255 -1:255 29 0] [0x2 2 1 [2 0] [7 4]] (REQUEST)
r 1.084194918 _12_ RTR  --- 0 AODV 48 [0 ffffffff 6 800] ------- [6:255 -1:255 29 0] [0x2 2 1 [2 0] [7 4]] (REQUEST)
r 1.084195052 _8_ RTR  --- 0 AODV 48 [0 ffffffff 6 800] ------- [6:255 -1:255 29 0] [0x2 2 1 [2 0] [7 4]] (REQUEST)
r 1.084195171 _3_ RTR  --- 0 AODV 48 [0 ffffffff 6 800] ------- [6:255 -1:255 29 0] [0x2 2 1 [2 0] [7 4]] (REQUEST)
r 1.084195171 _13_ RTR  --- 0 AODV 48 [0 ffffffff 6 800] ------- [6:255 -1:255 29 0] [0x2 2 1 [2 0] [7 4]] (REQUEST)
r 1.084195218 _16_ RTR  --- 0 AODV 48 [0 ffffffff 6 800] ------- [6:255 -1:255 29 0] [0x2 2 1 [2 0] [7 4]] (REQUEST)
r 1.087830869 _4_ RTR  --- 0 AODV 48 [0 ffffffff 3 800] ------- [3:255 -1:255 29 0] [0x2 2 1 [2 0] [7 4]] (REQUEST)
r 1.090506583 _16_ RTR  --- 0 AODV 48 [0 ffffffff 11 800] ------- [17:255 -1:255 29 0] [0x2 2 1 [2 0] [7 4]] (REQUEST)
r 1.090506583 _18_ RTR  --- 0 AODV 48 [0 ffffffff 11 800] ------- [17:255 -1:255 29 0] [0x2 2 1 [2 0] [7 4]] (REQUEST)
r 1.090506666 _12_ RTR  --- 0 AODV 48 [0 ffffffff 11 800] ------- [17:255 -1:255 29 0] [0x2 2 1 [2 0] [7 4]] (REQUEST)
r 1.090506783 _13_ RTR  --- 0 AODV 48 [0 ffffffff 11 800] ------- [17:255 -1:255 29 0] [0x2 2 1 [2 0] [7 4]] (REQUEST)
r 1.090506783 _11_ RTR  --- 0 AODV 48 [0 ffffffff 11 800] ------- [17:255 -1:255 29 0] [0x2 2 1 [2 0] [7 4]] (REQUEST)
r 1.090506916 _15_ RTR  --- 0 AODV 48 [0 ffffffff 11 800] ------- [17:255 -1:255 29 0] [0x2 2 1 [2 0] [7 4]] (REQUEST)
r 1.090506916 _19_ RTR  --- 0 AODV 48 [0 ffffffff 11 800] ------- [17:255 -1:255 29 0] [0x2 2 1 [2 0] [7 4]] (REQUEST)
r 1.090507036 _14_ RTR  --- 0 AODV 48 [0 ffffffff 11 800] ------- [17:255 -1:255 29 0] [0x2 2 1 [2 0] [7 4]] (REQUEST)
r 1.090507036 _10_ RTR  --- 0 AODV 48 [0 ffffffff 11 800] ------- [17:255 -1:255 29 0] [0x2 2 1 [2 0] [7 4]] (REQUEST)
r 1.090507083 _7_ RTR  --- 0 AODV 48 [0 ffffffff 11 800] ------- [17:255 -1:255 29 0] [0x2 2 1 [2 0] [7 4]] (REQUEST)
s 1.090585930 _18_ RTR  --- 0 AODV 48 [0 ffffffff 11 800] ------- [18:255 -1:255 28 0] [0x2 3 1 [2 0] [7 4]] (REQUEST)
s 1.093144503 _19_ RTR  --- 0 AODV 48 [0 ffffffff 11 800] ------- [19:255 -1:255 28 0] [0x2 3 1 [2 0] [7 4]] (REQUEST)
r 1.095468263 _17_ RTR  --- 0 AODV 48 [0 ffffffff 12 800] ------- [18:255 -1:255 28 0] [0x2 3 1 [2 0] [7 4]] (REQUEST)
r 1.095468263 _19_ RTR  --- 0 AODV 48 [0 ffffffff 12 800] ------- [18:255 -1:255 28 0] [0x2 3 1 [2 0] [7 4]] (REQUEST)
r 1.095468347 _13_ RTR  --- 0 AODV 48 [0 ffffffff 12 800] ------- [18:255 -1:255 28 0] [0x2 3 1 [2 0] [7 4]] (REQUEST)
r 1.095468464 _14_ RTR  --- 0 AODV 48 [0 ffffffff 12 800] ------- [18:255 -1:255 28 0] [0x2 3 1 [2 0] [7 4]] (REQUEST)
r 1.095468464 _12_ RTR  --- 0 AODV 48 [0 ffffffff 12 800] ------- [18:255 -1:255 28 0] [0x2 3 1 [2 0] [7 4]] (REQUEST)
r 1.095468597 _16_ RTR  --- 0 AODV 48 [0 ffffffff 12 800] ------- [18:255 -1:255 28 0] [0x2 3 1 [2 0] [7 4]] (REQUEST)
r 1.095468716 _11_ RTR  --- 0 AODV 48 [0 ffffffff 12 800] ------- [18:255 -1:255 28 0] [0x2 3 1 [2 0] [7 4]] (REQUEST)
r 1.095468763 _8_ RTR  --- 0 AODV 48 [0 ffffffff 12 800] ------- [18:255 -1:255 28 0] [0x2 3 1 [2 0] [7 4]] (REQUEST)
s 1.097405989 _15_ RTR  --- 0 AODV 48 [0 ffffffff 11 800] ------- [15:255 -1:255 28 0] [0x2 3 1 [2 0] [7 4]] (REQUEST)
r 1.099882836 _18_ RTR  --- 0 AODV 48 [0 ffffffff 13 800] ------- [19:255 -1:255 28 0] [0x2 3 1 [2 0] [7 4]] (REQUEST)
r 1.099882920 _14_ RTR  --- 0 AODV 48 [0 ffffffff 13 800] ------- [19:255 -1:255 28 0] [0x2 3 1 [2 0] [7 4]] (REQUEST)
r 1.099883037 _13_ RTR  --- 0 AODV 48 [0 ffffffff 13 800] ------- [19:255 -1:255 28 0] [0x2 3 1 [2 0] [7 4]] (REQUEST)
r 1.099883170 _17_ RTR  --- 0 AODV 48 [0 ffffffff 13 800] ------- [19:255 -1:255 28 0] [0x2 3 1 [2 0] [7 4]] (REQUEST)
r 1.099883289 _12_ RTR  --- 0 AODV 48 [0 ffffffff 13 800] ------- [19:255 -1:255 28 0] [0x2 3 1 [2 0] [7 4]] (REQUEST)
r 1.099883336 _9_ RTR  --- 0 AODV 48 [0 ffffffff 13 800] ------- [19:255 -1:255 28 0] [0x2 3 1 [2 0] [7 4]] (REQUEST)
s 1.102201463 _13_ AGT  --- 2 tcp 40 [0 0 0 0] ------- [13:2 14:2 32 0] [0 0] 0 0
r 1.102201463 _13_ RTR  --- 2 tcp 40 [0 0 0 0] ------- [13:2 14:2 32 0] [0 0] 0 0
s 1.102201463 _13_ RTR  --- 0 AODV 48 [0 0 0 0] ------- [13:255 -1:255 30 0] [0x2 1 1 [14 0] [13 4]] (REQUEST)
r 1.106123796 _12_ RTR  --- 0 AODV 48 [0 ffffffff d 800] ------- [13:255 -1:255 30 0] [0x2 1 1 [14 0] [13 4]] (REQUEST)
r 1.106123796 _14_ RTR  --- 0 AODV 48 [0 ffffffff d 800] ------- [13:255 -1:255 30 0] [0x2 1 1 [14 0] [13 4]] (REQUEST)
s 1.106123796 _14_ RTR  --- 0 AODV 44 [0 0 0 0] ------- [14:255 13:255 30 13] [0x4 1 [14 4] 10.000000] (REPLY)
r 1.106123880 _18_ RTR  --- 0 AODV 48 [0 ffffffff d 800] ------- [13:255 -1:255 30 0] [0x2 1 1 [14 0] [13 4]] (REQUEST)
r 1.106123997 _17_ RTR  --- 0 AODV 48 [0 ffffffff d 800] ------- [13:255 -1:255 30 0] [0x2 1 1 [14 0] [13 4]] (REQUEST)
r 1.106123997 _19_ RTR  --- 0 AODV 48 [0 ffffffff d 800] ------- [13:255 -1:255 30 0] [0x2 1 1 [14 0] [13 4]] (REQUEST)
s 1.106479218 _18_ RTR  --- 0 AODV 48 [0 ffffffff d 800] ------- [18:255 -1:255 29 0] [0x2 2 1 [14 0] [13 4]] (REQUEST)
s 1.107620990 _19_ RTR  --- 0 AODV 48 [0 ffffffff d 800] ------- [19:255 -1:255 29 0] [0x2 2 1 [14 0] [13 4]] (REQUEST)
r 1.109441551 _17_ RTR  --- 0 AODV 48 [0 ffffffff 12 800] ------- [18:255 -1:255 29 0] [0x2 2 1 [14 0] [13 4]] (REQUEST)
r 1.109441551 _19_ RTR  --- 0 AODV 48 [0 ffffffff 12 800] ------- [18:255 -1:255 29 0] [0x2 2 1 [14 0] [13 4]] (REQUEST)
r 1.109441635 _13_ RTR  --- 0 AODV 48 [0 ffffffff 12 800] ------- [18:255 -1:255 29 0] [0x2 2 1 [14 0] [13 4]] (REQUEST)
r 1.109441752 _14_ RTR  --- 0 AODV 48 [0 ffffffff 12 800] ------- [18:255 -1:255 29 0] [0x2 2 1 [14 0] [13 4]] (REQUEST)
r 1.109441752 _12_ RTR  --- 0 AODV 48 [0 ffffffff 12 800] ------- [18:255 -1:255 29 0] [0x2 2 1 [14 0] [13 4]] (REQUEST)
r 1.109441885 _16_ RTR  --- 0 AODV 48 [0 ffffffff 12 800] ------- [18:255 -1:255 29 0] [0x2 2 1 [14 0] [13 4]] (REQUEST)
r 1.109442004 _11_ RTR  --- 0 AODV 48 [0 ffffffff 12 800] ------- [18:255 -1:255 29 0] [0x2 2 1 [14 0] [13 4]] (REQUEST)
r 1.109442051 _8_ RTR  --- 0 AODV 48 [0 ffffffff 12 800] ------- [18:255 -1:255 29 0] [0x2 2 1 [14 0] [13 4]] (REQUEST)
s 1.112599165 _17_ RTR  --- 0 AODV 48 [0 ffffffff d 800] ------- [17:255 -1:255 29 0] [0x2 2 1 [14 0] [13 4]] (REQUEST)
s 1.113720918 _11_ RTR  --- 0 AODV 48 [0 ffffffff 12 800] ------- [11:255 -1:255 28 0] [0x2 3 1 [14 0] [13 4]] (REQUEST)
r 1.114871324 _18_ RTR  --- 0 AODV 48 [0 ffffffff 13 800] ------- [19:255 -1:255 29 0] [0x2 2 1 [14 0] [13 4]] (REQUEST)
r 1.114871407 _14_ RTR  --- 0 AODV 48 [0 ffffffff 13 800] ------- [19:255 -1:255 29 0] [0x2 2 1 [14 0] [13 4]] (REQUEST)
r 1.114871524 _13_ RTR  --- 0 AODV 48 [0 ffffffff 13 800] ------- [19:255 -1:255 29 0] [0x2 2 1 [14 0] [13 4]] (REQUEST)
r 1.114871824 _9_ RTR  --- 0 AODV 48 [0 ffffffff 13 800] ------- [19:255 -1:255 29 0] [0x2 2 1 [14 0] [13 4]] (REQUEST)
s 1.114877850 _8_ RTR  --- 0 AODV 48 [0 ffffffff 12 800] ------- [8:255 -1:255 28 0] [0x2 3 1 [14 0] [13 4]] (REQUEST)
r 1.114960322 _16_ RTR  --- 0 AODV 48 [0 ffffffff f 800] ------- [15:255 -1:255 28 0] [0x2 3 1 [2 0] [7 4]] (REQUEST)
r 1.114960406 _10_ RTR  --- 0 AODV 48 [0 ffffffff f 800] ------- [15:255 -1:255 28 0] [0x2 3 1 [2 0] [7 4]] (REQUEST)
r 1.114960523 _11_ RTR  --- 0 AODV 48 [0 ffffffff f 800] ------- [15:255 -1:255 28 0] [0x2 3 1 [2 0] [7 4]] (REQUEST)
r 1.114960822 _5_ RTR  --- 0 AODV 48 [0 ffffffff f 800] ------- [15:255 -1:255 28 0] [0x2 3 1 [2 0] [7 4]] (REQUEST)
s 1.115606805 _12_ RTR  --- 0 AODV 48 [0 ffffffff d 800] ------- [12:255 -1:255 29 0] [0x2 2 1 [14 0] [13 4]] (REQUEST)
s 1.117211302 _16_ RTR  --- 0 AODV 48 [0 ffffffff 12 800] ------- [16:255 -1:255 28 0] [0x2 3 1 [14 0] [13 4]] (REQUEST)
r 1.117963252 _10_ RTR  --- 0 AODV 48 [0 ffffffff b 800] ------- [11:255 -1:255 28 0] [0x2 3 1 [14 0] [13 4]] (REQUEST)
r 1.117963252 _12_ RTR  --- 0 AODV 48 [0 ffffffff b 800] ------- [11:255 -1:255 28 0] [0x2 3 1 [14 0] [13 4]] (REQUEST)
r 1.117963335 _6_ RTR  --- 0 AODV 48 [0 ffffffff b 800] ------- [11:255 -1:255 28 0] [0x2 3 1 [14 0] [13 4]] (REQUEST)