s 1.028573734 _16_ AGT  --- 0 tcp 40 [0 0 0 0] ------- [16:0 8:1 32 0] [0 0] 0 0
r 1.028573734 _16_ RTR  --- 0 tcp 40 [0 0 0 0] ------- [16:0 8:1 32 0] [0 0] 0 0
s 1.028573734 _16_ RTR  --- 0 AODV 48 [0 0 0 0] ------- [16:255 -1:255 30 0] [0x2 1 1 [8 0] [16 4]] (REQUEST)
r 1.031855901 _15_ RTR  --- 0 AODV 48 [0 ffffffff 10 800] ------- [16:255 -1:255 30 0] [0x2 1 1 [8 0] [16 4]] (REQUEST)
r 1.031855901 _17_ RTR  --- 0 AODV 48 [0 ffffffff 10 800] ------- [16:255 -1:255 30 0] [0x2 1 1 [8 0] [16 4]] (REQUEST)
r 1.031856011 _6_ RTR  --- 0 AODV 48 [0 ffffffff 10 800] ------- [16:255 -1:255 30 0] [0x2 1 1 [8 0] [16 4]] (REQUEST)
r 1.031856011 _26_ RTR  --- 0 AODV 48 [0 ffffffff 10 800] ------- [16:255 -1:255 30 0] [0x2 1 1 [8 0] [16 4]] (REQUEST)
r 1.031856057 _7_ RTR  --- 0 AODV 48 [0 ffffffff 10 800] ------- [16:255 -1:255 30 0] [0x2 1 1 [8 0] [16 4]] (REQUEST)
r 1.031856057 _5_ RTR  --- 0 AODV 48 [0 ffffffff 10 800] ------- [16:255 -1:255 30 0] [0x2 1 1 [8 0] [16 4]] (REQUEST)
r 1.031856057 _25_ RTR  --- 0 AODV 48 [0 ffffffff 10 800] ------- [16:255 -1:255 30 0] [0x2 1 1 [8 0] [16 4]] (REQUEST)
r 1.031856057 _27_ RTR  --- 0 AODV 48 [0 ffffffff 10 800] ------- [16:255 -1:255 30 0] [0x2 1 1 [8 0] [16 4]] (REQUEST)
r 1.031856068 _14_ RTR  --- 0 AODV 48 [0 ffffffff 10 800] ------- [16:255 -1:255 30 0] [0x2 1 1 [8 0] [16 4]] (REQUEST)
r 1.031856068 _18_ RTR  --- 0 AODV 48 [0 ffffffff 10 800] ------- [16:255 -1:255 30 0] [0x2 1 1 [8 0] [16 4]] (REQUEST)
r 1.031856168 _8_ RTR  --- 0 AODV 48 [0 ffffffff 10 800] ------- [16:255 -1:255 30 0] [0x2 1 1 [8 0] [16 4]] (REQUEST)
r 1.031856168 _4_ RTR  --- 0 AODV 48 [0 ffffffff 10 800] ------- [16:255 -1:255 30 0] [0x2 1 1 [8 0] [16 4]] (REQUEST)
r 1.031856168 _24_ RTR  --- 0 AODV 48 [0 ffffffff 10 800] ------- [16:255 -1:255 30 0] [0x2 1 1 [8 0] [16 4]] (REQUEST)
r 1.031856168 _28_ RTR  --- 0 AODV 48 [0 ffffffff 10 800] ------- [16:255 -1:255 30 0] [0x2 1 1 [8 0] [16 4]] (REQUEST)
s 1.031856168 _8_ RTR  --- 0 AODV 44 [0 0 0 0] ------- [8:255 16:255 30 16] [0x4 1 [8 4] 10.000000] (REPLY)
r 1.031856234 _13_ RTR  --- 0 AODV 48 [0 ffffffff 10 800] ------- [16:255 -1:255 30 0] [0x2 1 1 [8 0] [16 4]] (REQUEST)
r 1.031856234 _19_ RTR  --- 0 AODV 48 [0 ffffffff 10 800] ------- [16:255 -1:255 30 0] [0x2 1 1 [8 0] [16 4]] (REQUEST)
r 1.031856291 _36_ RTR  --- 0 AODV 48 [0 ffffffff 10 800] ------- [16:255 -1:255 30 0] [0x2 1 1 [8 0] [16 4]] (REQUEST)
r 1.031856306 _9_ RTR  --- 0 AODV 48 [0 ffffffff 10 800] ------- [16:255 -1:255 30 0] [0x2 1 1 [8 0] [16 4]] (REQUEST)
r 1.031856306 _3_ RTR  --- 0 AODV 48 [0 ffffffff 10 800] ------- [16:255 -1:255 30 0] [0x2 1 1 [8 0] [16 4]] (REQUEST)
r 1.031856306 _23_ RTR  --- 0 AODV 48 [0 ffffffff 10 800] ------- [16:255 -1:255 30 0] [0x2 1 1 [8 0] [16 4]] (REQUEST)
r 1.031856306 _29_ RTR  --- 0 AODV 48 [0 ffffffff 10 800] ------- [16:255 -1:255 30 0] [0x2 1 1 [8 0] [16 4]] (REQUEST)
r 1.031856315 _35_ RTR  --- 0 AODV 48 [0 ffffffff 10 800] ------- [16:255 -1:255 30 0] [0x2 1 1 [8 0] [16 4]] (REQUEST)
r 1.031856315 _37_ RTR  --- 0 AODV 48 [0 ffffffff 10 800] ------- [16:255 -1:255 30 0] [0x2 1 1 [8 0] [16 4]] (REQUEST)
r 1.031856383 _34_ RTR  --- 0 AODV 48 [0 ffffffff 10 800] ------- [16:255 -1:255 30 0] [0x2 1 1 [8 0] [16 4]] (REQUEST)
r 1.031856383 _38_ RTR  --- 0 AODV 48 [0 ffffffff 10 800] ------- [16:255 -1:255 30 0] [0x2 1 1 [8 0] [16 4]] (REQUEST)
r 1.031856401 _12_ RTR  --- 0 AODV 48 [0 ffffffff 10 800] ------- [16:255 -1:255 30 0] [0x2 1 1 [8 0] [16 4]] (REQUEST)
r 1.031856456 _2_ RTR  --- 0 AODV 48 [0 ffffffff 10 800] ------- [16:255 -1:255 30 0] [0x2 1 1 [8 0] [16 4]] (REQUEST)
r 1.031856456 _22_ RTR  --- 0 AODV 48 [0 ffffffff 10 800] ------- [16:255 -1:255 30 0] [0x2 1 1 [8 0] [16 4]] (REQUEST)
r 1.031856483 _33_ RTR  --- 0 AODV 48 [0 ffffffff 10 800] ------- [16:255 -1:255 30 0] [0x2 1 1 [8 0] [16 4]] (REQUEST)
r 1.031856483 _39_ RTR  --- 0 AODV 48 [0 ffffffff 10 800] ------- [16:255 -1:255 30 0] [0x2 1 1 [8 0] [16 4]] (REQUEST)
r 1.031856568 _11_ RTR  --- 0 AODV 48 [0 ffffffff 10 800] ------- [16:255 -1:255 30 0] [0x2 1 1 [8 0] [16 4]] (REQUEST)
r 1.031856568 _46_ RTR  --- 0 AODV 48 [0 ffffffff 10 800] ------- [16:255 -1:255 30 0] [0x2 1 1 [8 0] [16 4]] (REQUEST)
s 1.031891849 _46_ RTR  --- 0 AODV 48 [0 ffffffff 10 800] ------- [46:255 -1:255 29 0] [0x2 2 1 [8 0] [16 4]] (REQUEST)
s 1.032271898 _4_ RTR  --- 0 AODV 48 [0 ffffffff 10 800] ------- [4:255 -1:255 29 0] [0x2 2 1 [8 0] [16 4]] (REQUEST)
s 1.032395395 _13_ RTR  --- 0 AODV 48 [0 ffffffff 10 800] ------- [13:255 -1:255 29 0] [0x2 2 1 [8 0] [16 4]] (REQUEST)
s 1.032409772 _9_ RTR  --- 0 AODV 48 [0 ffffffff 10 800] ------- [9:255 -1:255 29 0] [0x2 2 1 [8 0] [16 4]] (REQUEST)
s 1.032630141 _24_ RTR  --- 0 AODV 48 [0 ffffffff 10 800] ------- [24:255 -1:255 29 0] [0x2 2 1 [8 0] [16 4]] (REQUEST)
s 1.033050326 _28_ RTR  --- 0 AODV 48 [0 ffffffff 10 800] ------- [28:255 -1:255 29 0] [0x2 2 1 [8 0] [16 4]] (REQUEST)
s 1.033154816 _12_ RTR  --- 0 AODV 48 [0 ffffffff 10 800] ------- [12:255 -1:255 29 0] [0x2 2 1 [8 0] [16 4]] (REQUEST)
s 1.033474460 _17_ RTR  --- 0 AODV 48 [0 ffffffff 10 800] ------- [17:255 -1:255 29 0] [0x2 2 1 [8 0] [16 4]] (REQUEST)
s 1.033520563 _14_ RTR  --- 0 AODV 48 [0 ffffffff 10 800] ------- [14:255 -1:255 29 0] [0x2 2 1 [8 0] [16 4]] (REQUEST)
s 1.033785110 _18_ RTR  --- 0 AODV 48 [0 ffffffff 10 800] ------- [18:255 -1:255 29 0] [0x2 2 1 [8 0] [16 4]] (REQUEST)
s 1.033999665 _36_ RTR  --- 0 AODV 48 [0 ffffffff 10 800] ------- [36:255 -1:255 29 0] [0x2 2 1 [8 0] [16 4]] (REQUEST)
s 1.034503495 _6_ RTR  --- 0 AODV 48 [0 ffffffff 10 800] ------- [6:255 -1:255 29 0] [0x2 2 1 [8 0] [16 4]] (REQUEST)
s 1.034660342 _27_ RTR  --- 0 AODV 48 [0 ffffffff 10 800] ------- [27:255 -1:255 29 0] [0x2 2 1 [8 0] [16 4]] (REQUEST)
s 1.035447576 _19_ RTR  --- 0 AODV 48 [0 ffffffff 10 800] ------- [19:255 -1:255 29 0] [0x2 2 1 [8 0] [16 4]] (REQUEST)
s 1.035642384 _26_ RTR  --- 0 AODV 48 [0 ffffffff 10 800] ------- [26:255 -1:255 29 0] [0x2 2 1 [8 0] [16 4]] (REQUEST)
r 1.035677562 _12_ RTR  --- 0 AODV 48 [0 ffffffff d 800] ------- [13:255 -1:255 29 0] [0x2 2 1 [8 0] [16 4]] (REQUEST)
r 1.035677562 _14_ RTR  --- 0 AODV 48 [0 ffffffff d 800] ------- [13:255 -1:255 29 0] [0x2 2 1 [8 0] [16 4]] (REQUEST)
r 1.035677672 _3_ RTR  --- 0 AODV 48 [0 ffffffff d 800] ------- [13:255 -1:255 29 0] [0x2 2 1 [8 0] [16 4]] (REQUEST)
r 1.035677672 _23_ RTR  --- 0 AODV 48 [0 ffffffff d 800] ------- [13:255 -1:255 29 0] [0x2 2 1 [8 0] [16 4]] (REQUEST)
r 1.035677718 _4_ RTR  --- 0 AODV 48 [0 ffffffff d 800] ------- [13:255 -1:255 29 0] [0x2 2 1 [8 0] [16 4]] (REQUEST)
r 1.035677718 _2_ RTR  --- 0 AODV 48 [0 ffffffff d 800] ------- [13:255 -1:255 29 0] [0x2 2 1 [8 0] [16 4]] (REQUEST)
r 1.035677718 _22_ RTR  --- 0 AODV 48 [0 ffffffff d 800] ------- [13:255 -1:255 29 0] [0x2 2 1 [8 0] [16 4]] (REQUEST)
r 1.035677718 _24_ RTR  --- 0 AODV 48 [0 ffffffff d 800] ------- [13:255 -1:255 29 0] [0x2 2 1 [8 0] [16 4]] (REQUEST)
r 1.035677728 _11_ RTR  --- 0 AODV 48 [0 ffffffff d 800] ------- [13:255 -1:255 29 0] [0x2 2 1 [8 0] [16 4]] (REQUEST)
r 1.035677828 _1_ RTR  --- 0 AODV 48 [0 ffffffff d 800] ------- [13:255 -1:255 29 0] [0x2 2 1 [8 0] [16 4]] (REQUEST)
r 1.035677828 _21_ RTR  --- 0 AODV 48 [0 ffffffff d 800] ------- [13:255 -1:255 29 0] [0x2 2 1 [8 0] [16 4]] (REQUEST)
r 1.035677895 _10_ RTR  --- 0 AODV 48 [0 ffffffff d 800] ------- [13:255 -1:255 29 0] [0x2 2 1 [8 0] [16 4]] (REQUEST)
r 1.035677952 _33_ RTR  --- 0 AODV 48 [0 ffffffff d 800] ------- [13:255 -1:255 29 0] [0x2 2 1 [8 0] [16 4]] (REQUEST)
r 1.035677967 _0_ RTR  --- 0 AODV 48 [0 ffffffff d 800] ------- [13:255 -1:255 29 0] [0x2 2 1 [8 0] [16 4]] (REQUEST)
r 1.035677967 _20_ RTR  --- 0 AODV 48 [0 ffffffff d 800] ------- [13:255 -1:255 29 0] [0x2 2 1 [8 0] [16 4]] (REQUEST)
r 1.035677976 _32_ RTR  --- 0 AODV 48 [0 ffffffff d 800] ------- [13:255 -1:255 29 0] [0x2 2 1 [8 0] [16 4]] (REQUEST)
r 1.035677976 _34_ RTR  --- 0 AODV 48 [0 ffffffff d 800] ------- [13:255 -1:255 29 0] [0x2 2 1 [8 0] [16 4]] (REQUEST)
r 1.035678044 _31_ RTR  --- 0 AODV 48 [0 ffffffff d 800] ------- [13:255 -1:255 29 0] [0x2 2 1 [8 0] [16 4]] (REQUEST)
r 1.035678143 _30_ RTR  --- 0 AODV 48 [0 ffffffff d 800] ------- [13:255 -1:255 29 0] [0x2 2 1 [8 0] [16 4]] (REQUEST)
s 1.035784590 _34_ RTR  --- 0 AODV 48 [0 ffffffff 10 800] ------- [34:255 -1:255 29 0] [0x2 2 1 [8 0] [16 4]] (REQUEST)
s 1.036026750 _22_ RTR  --- 0 AODV 48 [0 ffffffff 10 800] ------- [22:255 -1:255 29 0] [0x2 2 1 [8 0] [16 4]] (REQUEST)
s 1.036033233 _10_ RTR  --- 0 AODV 48 [0 ffffffff d 800] ------- [10:255 -1:255 28 0] [0x2 3 1 [8 0] [16 4]] (REQUEST)
s 1.036159929 _35_ RTR  --- 0 AODV 48 [0 ffffffff 10 800] ------- [35:255 -1:255 29 0] [0x2 2 1 [8 0] [16 4]] (REQUEST)
s 1.036982204 _30_ RTR  --- 0 AODV 48 [0 ffffffff d 800] ------- [30:255 -1:255 28 0] [0x2 3 1 [8 0] [16 4]] (REQUEST)
s 1.037174960 _20_ RTR  --- 0 AODV 48 [0 ffffffff d 800] ------- [20:255 -1:255 28 0] [0x2 3 1 [8 0] [16 4]] (REQUEST)
s 1.037291106 _38_ RTR  --- 0 AODV 48 [0 ffffffff 10 800] ------- [38:255 -1:255 29 0] [0x2 2 1 [8 0] [16 4]] (REQUEST)
s 1.037658778 _2_ RTR  --- 0 AODV 48 [0 ffffffff 10 800] ------- [2:255 -1:255 29 0] [0x2 2 1 [8 0] [16 4]] (REQUEST)
r 1.037932606 _38_ RTR  --- 0 AODV 48 [0 ffffffff 1c 800] ------- [28:255 -1:255 29 0] [0x2 2 1 [8 0] [16 4]] (REQUEST)
r 1.037932651 _37_ RTR  --- 0 AODV 48 [0 ffffffff 1c 800] ------- [28:255 -1:255 29 0] [0x2 2 1 [8 0] [16 4]] (REQUEST)
r 1.037932651 _39_ RTR  --- 0 AODV 48 [0 ffffffff 1c 800] ------- [28:255 -1:255 29 0] [0x2 2 1 [8 0] [16 4]] (REQUEST)
s 1.037973339 _7_ RTR  --- 0 AODV 48 [0 ffffffff 10 800] ------- [7:255 -1:255 29 0] [0x2 2 1 [8 0] [16 4]] (REQUEST)
r 1.038027387 _8_ RTR  --- 0 AODV 48 [0 ffffffff 12 800] ------- [18:255 -1:255 29 0] [0x2 2 1 [8 0] [16 4]] (REQUEST)
r 1.038027433 _9_ RTR  --- 0 AODV 48 [0 ffffffff 12 800] ------- [18:255 -1:255 29 0] [0x2 2 1 [8 0] [16 4]] (REQUEST)
r 1.038027433 _7_ RTR  --- 0 AODV 48 [0 ffffffff 12 800] ------- [18:255 -1:255 29 0] [0x2 2 1 [8 0] [16 4]] (REQUEST)
s 1.038410474 _5_ RTR  --- 0 AODV 48 [0 ffffffff 10 800] ------- [5:255 -1:255 29 0] [0x2 2 1 [8 0] [16 4]] (REQUEST)
s 1.038428466 _15_ RTR  --- 0 AODV 48 [0 ffffffff 10 800] ------- [15:255 -1:255 29 0] [0x2 2 1 [8 0] [16 4]] (REQUEST)
s 1.038939826 _29_ RTR  --- 0 AODV 48 [0 ffffffff 10 800] ------- [29:255 -1:255 29 0] [0x2 2 1 [8 0] [16 4]] (REQUEST)
s 1.039230562 _1_ RTR  --- 0 AODV 48 [0 ffffffff d 800] ------- [1:255 -1:255 28 0] [0x2 3 1 [8 0] [16 4]] (REQUEST)
s 1.039915415 _39_ RTR  --- 0 AODV 48 [0 ffffffff 10 800] ------- [39:255 -1:255 29 0] [0x2 2 1 [8 0] [16 4]] (REQUEST)
s 1.040078415 _23_ RTR  --- 0 AODV 48 [0 ffffffff 10 800] ------- [23:255 -1:255 29 0] [0x2 2 1 [8 0] [16 4]] (REQUEST)
s 1.040125264 _33_ RTR  --- 0 AODV 48 [0 ffffffff 10 800] ------- [33:255 -1:255 29 0] [0x2 2 1 [8 0] [16 4]] (REQUEST)
s 1.040125391 _32_ RTR  --- 0 AODV 48 [0 ffffffff d 800] ------- [32:255 -1:255 28 0] [0x2 3 1 [8 0] [16 4]] (REQUEST)
s 1.040156769 _37_ RTR  --- 0 AODV 48 [0 ffffffff 10 800] ------- [37:255 -1:255 29 0] [0x2 2 1 [8 0] [16 4]] (REQUEST)
r 1.040281662 _5_ RTR  --- 0 AODV 48 [0 ffffffff 6 800] ------- [6:255 -1:255 29 0] [0x2 2 1 [8 0] [16 4]] (REQUEST)
r 1.040281662 _7_ RTR  --- 0 AODV 48 [0 ffffffff 6 800] ------- [6:255 -1:255 29 0] [0x2 2 1 [8 0] [16 4]] (REQUEST)
r 1.040281772 _16_ RTR  --- 0 AODV 48 [0 ffffffff 6 800] ------- [6:255 -1:255 29 0] [0x2 2 1 [8 0] [16 4]] (REQUEST)
r 1.040281818 _17_ RTR  --- 0 AODV 48 [0 ffffffff 6 800] ------- [6:255 -1:255 29 0] [0x2 2 1 [8 0] [16 4]] (REQUEST)
r 1.040281828 _8_ RTR  --- 0 AODV 48 [0 ffffffff 6 800] ------- [6:255 -1:255 29 0] [0x2 2 1 [8 0] [16 4]] (REQUEST)
r 1.040281995 _9_ RTR  --- 0 AODV 48 [0 ffffffff 6 800] ------- [6:255 -1:255 29 0] [0x2 2 1 [8 0] [16 4]] (REQUEST)
s 1.040401612 _25_ RTR  --- 0 AODV 48 [0 ffffffff 10 800] ------- [25:255 -1:255 29 0] [0x2 2 1 [8 0] [16 4]] (REQUEST)
r 1.040402095 _34_ RTR  --- 0 AODV 48 [0 ffffffff 23 800] ------- [35:255 -1:255 29 0] [0x2 2 1 [8 0] [16 4]] (REQUEST)
r 1.040402095 _36_ RTR  --- 0 AODV 48 [0 ffffffff 23 800] ------- [35:255 -1:255 29 0] [0x2 2 1 [8 0] [16 4]] (REQUEST)
r 1.040402205 _45_ RTR  --- 0 AODV 48 [0 ffffffff 23 800] ------- [35:255 -1:255 29 0] [0x2 2 1 [8 0] [16 4]] (REQUEST)
r 1.040402252 _44_ RTR  --- 0 AODV 48 [0 ffffffff 23 800] ------- [35:255 -1:255 29 0] [0x2 2 1 [8 0] [16 4]] (REQUEST)
r 1.040402252 _46_ RTR  --- 0 AODV 48 [0 ffffffff 23 800] ------- [35:255 -1:255 29 0] [0x2 2 1 [8 0] [16 4]] (REQUEST)
r 1.040402262 _37_ RTR  --- 0 AODV 48 [0 ffffffff 23 800] ------- [35:255 -1:255 29 0] [0x2 2 1 [8 0] [16 4]] (REQUEST)
r 1.040402362 _43_ RTR  --- 0 AODV 48 [0 ffffffff 23 800] ------- [35:255 -1:255 29 0] [0x2 2 1 [8 0] [16 4]] (REQUEST)
r 1.040402362 _47_ RTR  --- 0 AODV 48 [0 ffffffff 23 800] ------- [35:255 -1:255 29 0] [0x2 2 1 [8 0] [16 4]] (REQUEST)
r 1.040402482 _55_ RTR  --- 0 AODV 48 [0 ffffffff 23 800] ------- [35:255 -1:255 29 0] [0x2 2 1 [8 0] [16 4]] (REQUEST)
r 1.040402500 _48_ RTR  --- 0 AODV 48 [0 ffffffff 23 800] ------- [35:255 -1:255 29 0] [0x2 2 1 [8 0] [16 4]] (REQUEST)
r 1.040402506 _54_ RTR  --- 0 AODV 48 [0 ffffffff 23 800] ------- [35:255 -1:255 29 0] [0x2 2 1 [8 0] [16 4]] (REQUEST)
r 1.040402506 _56_ RTR  --- 0 AODV 48 [0 ffffffff 23 800] ------- [35:255 -1:255 29 0] [0x2 2 1 [8 0] [16 4]] (REQUEST)
r 1.040402575 _57_ RTR  --- 0 AODV 48 [0 ffffffff 23 800] ------- [35:255 -1:255 29 0] [0x2 2 1 [8 0] [16 4]] (REQUEST)
r 1.040404983 _11_ RTR  --- 0 AODV 48 [0 ffffffff c 800] ------- [12:255 -1:255 29 0] [0x2 2 1 [8 0] [16 4]] (REQUEST)
r 1.040404983 _13_ RTR  --- 0 AODV 48 [0 ffffffff c 800] ------- [12:255 -1:255 29 0] [0x2 2 1 [8 0] [16 4]] (REQUEST)
r 1.040405093 _2_ RTR  --- 0 AODV 48 [0 ffffffff c 800] ------- [12:255 -1:255 29 0] [0x2 2 1 [8 0] [16 4]] (REQUEST)
r 1.040405093 _22_ RTR  --- 0 AODV 48 [0 ffffffff c 800] ------- [12:255 -1:255 29 0] [0x2 2 1 [8 0] [16 4]] (REQUEST)
r 1.040405139 _1_ RTR  --- 0 AODV 48 [0 ffffffff c 800] ------- [12:255 -1:255 29 0] [0x2 2 1 [8 0] [16 4]] (REQUEST)
r 1.040405139 _21_ RTR  --- 0 AODV 48 [0 ffffffff c 800] ------- [12:255 -1:255 29 0] [0x2 2 1 [8 0] [16 4]] (REQUEST)
r 1.040405150 _10_ RTR  --- 0 AODV 48 [0 ffffffff c 800] ------- [12:255 -1:255 29 0] [0x2 2 1 [8 0] [16 4]] (REQUEST)
r 1.040405250 _0_ RTR  --- 0 AODV 48 [0 ffffffff c 800] ------- [12:255 -1:255 29 0] [0x2 2 1 [8 0] [16 4]] (REQUEST)
r 1.040405250 _20_ RTR  --- 0 AODV 48 [0 ffffffff c 800] ------- [12:255 -1:255 29 0] [0x2 2 1 [8 0] [16 4]] (REQUEST)
s 1.040430295 _11_ RTR  --- 0 AODV 48 [0 ffffffff 10 800] ------- [11:255 -1:255 29 0] [0x2 2 1 [8 0] [16 4]] (REQUEST)
s 1.041394790 _3_ RTR  --- 0 AODV 48 [0 ffffffff 10 800] ------- [3:255 -1:255 29 0] [0x2 2 1 [8 0] [16 4]] (REQUEST)
s 1.041692743 _48_ RTR  --- 0 AODV 48 [0 ffffffff 23 800] ------- [48:255 -1:255 28 0] [0x2 3 1 [8 0] [16 4]] (REQUEST)
s 1.041994400 _31_ RTR  --- 0 AODV 48 [0 ffffffff d 800] ------- [31:255 -1:255 28 0] [0x2 3 1 [8 0] [16 4]] (REQUEST)
s 1.042153135 _0_ RTR  --- 0 AODV 48 [0 ffffffff d 800] ------- [0:255 -1:255 28 0] [0x2 3 1 [8 0] [16 4]] (REQUEST)
r 1.042790126 _56_ RTR  --- 0 AODV 48 [0 ffffffff 2e 800] ------- [46:255 -1:255 29 0] [0x2 2 1 [8 0] [16 4]] (REQUEST)
r 1.042790172 _55_ RTR  --- 0 AODV 48 [0 ffffffff 2e 800] ------- [46:255 -1:255 29 0] [0x2 2 1 [8 0] [16 4]] (REQUEST)
r 1.042790172 _57_ RTR  --- 0 AODV 48 [0 ffffffff 2e 800] ------- [46:255 -1:255 29 0] [0x2 2 1 [8 0] [16 4]] (REQUEST)
r 1.042832729 _0_ RTR  --- 0 AODV 48 [0 ffffffff 1 800] ------- [1:255 -1:255 28 0] [0x2 3 1 [8 0] [16 4]] (REQUEST)
r 1.042832729 _2_ RTR  --- 0 AODV 48 [0 ffffffff 1 800] ------- [1:255 -1:255 28 0] [0x2 3 1 [8 0] [16 4]] (REQUEST)
r 1.042832839 _11_ RTR  --- 0 AODV 48 [0 ffffffff 1 800] ------- [1:255 -1:255 28 0] [0x2 3 1 [8 0] [16 4]] (REQUEST)
r 1.042832885 _10_ RTR  --- 0 AODV 48 [0 ffffffff 1 800] ------- [1:255 -1:255 28 0] [0x2 3 1 [8 0] [16 4]] (REQUEST)
r 1.042832885 _12_ RTR  --- 0 AODV 48 [0 ffffffff 1 800] ------- [1:255 -1:255 28 0] [0x2 3 1 [8 0] [16 4]] (REQUEST)
r 1.042832896 _3_ RTR  --- 0 AODV 48 [0 ffffffff 1 800] ------- [1:255 -1:255 28 0] [0x2 3 1 [8 0] [16 4]] (REQUEST)
r 1.042977945 _26_ RTR  --- 0 AODV 48 [0 ffffffff 24 800] ------- [36:255 -1:255 29 0] [0x2 2 1 [8 0] [16 4]] (REQUEST)
s 1.043200314 _46_ AGT  --- 1 tcp 40 [0 0 0 0] ------- [46:0 36:0 32 0] [0 0] 0 0
r 1.043200314 _46_ RTR  --- 1 tcp 40 [0 0 0 0] ------- [46:0 36:0 32 0] [0 0] 0 0
s 1.043200314 _46_ RTR  --- 0 AODV 48 [0 0 0 0] ------- [46:255 -1:255 30 0] [0x2 1 1 [36 0] [46 4]] (REQUEST)
s 1.043437203 _55_ RTR  --- 0 AODV 48 [0 ffffffff 23 800] ------- [55:255 -1:255 28 0] [0x2 3 1 [8 0] [16 4]] (REQUEST)
s 1.043615053 _54_ RTR  --- 0 AODV 48 [0 ffffffff 23 800] ------- [54:255 -1:255 28 0] [0x2 3 1 [8 0] [16 4]] (REQUEST)
s 1.044757457 _47_ RTR  --- 0 AODV 48 [0 ffffffff 23 800] ------- [47:255 -1:255 28 0] [0x2 3 1 [8 0] [16 4]] (REQUEST)
s 1.045094609 _57_ RTR  --- 0 AODV 48 [0 ffffffff 23 800] ------- [57:255 -1:255 28 0] [0x2 3 1 [8 0] [16 4]] (REQUEST)
s 1.045160837 _21_ RTR  --- 0 AODV 48 [0 ffffffff d 800] ------- [21:255 -1:255 28 0] [0x2 3 1 [8 0] [16 4]] (REQUEST)
r 1.045294910 _47_ RTR  --- 0 AODV 48 [0 ffffffff 30 800] ------- [48:255 -1:255 28 0] [0x2 3 1 [8 0] [16 4]] (REQUEST)
r 1.045294910 _49_ RTR  --- 0 AODV 48 [0 ffffffff 30 800] ------- [48:255 -1:255 28 0] [0x2 3 1 [8 0] [16 4]] (REQUEST)
r 1.045295020 _38_ RTR  --- 0 AODV 48 [0 ffffffff 30 800] ------- [48:255 -1:255 28 0] [0x2 3 1 [8 0] [16 4]] (REQUEST)
r 1.045295020 _58_ RTR  --- 0 AODV 48 [0 ffffffff 30 800] ------- [48:255 -1:255 28 0] [0x2 3 1 [8 0] [16 4]] (REQUEST)
r 1.045295066 _39_ RTR  --- 0 AODV 48 [0 ffffffff 30 800] ------- [48:255 -1:255 28 0] [0x2 3 1 [8 0] [16 4]] (REQUEST)
r 1.045295066 _37_ RTR  --- 0 AODV 48 [0 ffffffff 30 800] ------- [48:255 -1:255 28 0] [0x2 3 1 [8 0] [16 4]] (REQUEST)
r 1.045295066 _57_ RTR  --- 0 AODV 48 [0 ffffffff 30 800] ------- [48:255 -1:255 28 0] [0x2 3 1 [8 0] [16 4]] (REQUEST)
r 1.045295066 _59_ RTR  --- 0 AODV 48 [0 ffffffff 30 800] ------- [48:255 -1:255 28 0] [0x2 3 1 [8 0] [16 4]] (REQUEST)
r 1.045295077 _46_ RTR  --- 0 AODV 48 [0 ffffffff 30 800] ------- [48:255 -1:255 28 0] [0x2 3 1 [8 0] [16 4]] (REQUEST)
r 1.045295177 _36_ RTR  --- 0 AODV 48 [0 ffffffff 30 800] ------- [48:255 -1:255 28 0] [0x2 3 1 [8 0] [16 4]] (REQUEST)
r 1.045295177 _56_ RTR  --- 0 AODV 48 [0 ffffffff 30 800] ------- [48:255 -1:255 28 0] [0x2 3 1 [8 0] [16 4]] (REQUEST)
r 1.045295243 _45_ RTR  --- 0 AODV 48 [0 ffffffff 30 800] ------- [48:255 -1:255 28 0] [0x2 3 1 [8 0] [16 4]] (REQUEST)
r 1.045295300 _28_ RTR  --- 0 AODV 48 [0 ffffffff 30 800] ------- [48:255 -1:255 28 0] [0x2 3 1 [8 0] [16 4]] (REQUEST)
r 1.045295315 _55_ RTR  --- 0 AODV 48 [0 ffffffff 30 800] ------- [48:255 -1:255 28 0] [0x2 3 1 [8 0] [16 4]] (REQUEST)
r 1.045295324 _29_ RTR  --- 0 AODV 48 [0 ffffffff 30 800] ------- [48:255 -1:255 28 0] [0x2 3 1 [8 0] [16 4]] (REQUEST)
r 1.045312462 _12_ RTR  --- 0 AODV 48 [0 ffffffff b 800] ------- [11:255 -1:255 29 0] [0x2 2 1 [8 0] [16 4]] (REQUEST)
r 1.045312572 _21_ RTR  --- 0 AODV 48 [0 ffffffff b 800] ------- [11:255 -1:255 29 0] [0x2 2 1 [8 0] [16 4]] (REQUEST)
r 1.045312618 _22_ RTR  --- 0 AODV 48 [0 ffffffff b 800] ------- [11:255 -1:255 29 0] [0x2 2 1 [8 0] [16 4]] (REQUEST)
s 1.046211971 _56_ RTR  --- 0 AODV 48 [0 ffffffff 23 800] ------- [56:255 -1:255 28 0] [0x2 3 1 [8 0] [16 4]] (REQUEST)
s 1.046407624 _45_ RTR  --- 0 AODV 48 [0 ffffffff 23 800] ------- [45:255 -1:255 28 0] [0x2 3 1 [8 0] [16 4]] (REQUEST)
s 1.047240128 _44_ RTR  --- 0 AODV 48 [0 ffffffff 23 800] ------- [44:255 -1:255 28 0] [0x2 3 1 [8 0] [16 4]] (REQUEST)
r 1.047457043 _31_ RTR  --- 0 AODV 48 [0 ffffffff 1e 800] ------- [30:255 -1:255 28 0] [0x2 3 1 [8 0] [16 4]] (REQUEST)
r 1.047457153 _40_ RTR  --- 0 AODV 48 [0 ffffffff 1e 800] ------- [30:255 -1:255 28 0] [0x2 3 1 [8 0] [16 4]] (REQUEST)
r 1.047457156 _20_ RTR  --- 0 AODV 48 [0 ffffffff 1e 800] ------- [30:255 -1:255 28 0] [0x2 3 1 [8 0] [16 4]] (REQUEST)
r 1.047457199 _41_ RTR  --- 0 AODV 48 [0 ffffffff 1e 800] ------- [30:255 -1:255 28 0] [0x2 3 1 [8 0] [16 4]] (REQUEST)
r 1.047457202 _21_ RTR  --- 0 AODV 48 [0 ffffffff 1e 800] ------- [30:255 -1:255 28 0] [0x2 3 1 [8 0] [16 4]] (REQUEST)
r 1.047457209 _32_ RTR  --- 0 AODV 48 [0 ffffffff 1e 800] ------- [30:255 -1:255 28 0] [0x2 3 1 [8 0] [16 4]] (REQUEST)
r 1.047457309 _42_ RTR  --- 0 AODV 48 [0 ffffffff 1e 800] ------- [30:255 -1:255 28 0] [0x2 3 1 [8 0] [16 4]] (REQUEST)
r 1.047457311 _22_ RTR  --- 0 AODV 48 [0 ffffffff 1e 800] ------- [30:255 -1:255 28 0] [0x2 3 1 [8 0] [16 4]] (REQUEST)
r 1.047457376 _33_ RTR  --- 0 AODV 48 [0 ffffffff 1e 800] ------- [30:255 -1:255 28 0] [0x2 3 1 [8 0] [16 4]] (REQUEST)
r 1.047457429 _50_ RTR  --- 0 AODV 48 [0 ffffffff 1e 800] ------- [30:255 -1:255 28 0] [0x2 3 1 [8 0] [16 4]] (REQUEST)
r 1.047457433 _10_ RTR  --- 0 AODV 48 [0 ffffffff 1e 800] ------- [30:255 -1:255 28 0] [0x2 3 1 [8 0] [16 4]] (REQUEST)
r 1.047457447 _43_ RTR  --- 0 AODV 48 [0 ffffffff 1e 800] ------- [30:255 -1:255 28 0] [0x2 3 1 [8 0] [16 4]] (REQUEST)
r 1.047457449 _23_ RTR  --- 0 AODV 48 [0 ffffffff 1e 800] ------- [30:255 -1:255 28 0] [0x2 3 1 [8 0] [16 4]] (REQUEST)
r 1.047457454 _51_ RTR  --- 0 AODV 48 [0 ffffffff 1e 800] ------- [30:255 -1:255 28 0] [0x2 3 1 [8 0] [16 4]] (REQUEST)
r 1.047457457 _11_ RTR  --- 0 AODV 48 [0 ffffffff 1e 800] ------- [30:255 -1:255 28 0] [0x2 3 1 [8 0] [16 4]] (REQUEST)
r 1.047457522 _52_ RTR  --- 0 AODV 48 [0 ffffffff 1e 800] ------- [30:255 -1:255 28 0] [0x2 3 1 [8 0] [16 4]] (REQUEST)
r 1.047457525 _12_ RTR  --- 0 AODV 48 [0 ffffffff 1e 800] ------- [30:255 -1:255 28 0] [0x2 3 1 [8 0] [16 4]] (REQUEST)
r 1.047457543 _34_ RTR  --- 0 AODV 48 [0 ffffffff 1e 800] ------- [30:255 -1:255 28 0] [0x2 3 1 [8 0] [16 4]] (REQUEST)
r 1.047457598 _44_ RTR  --- 0 AODV 48 [0 ffffffff 1e 800] ------- [30:255 -1:255 28 0] [0x2 3 1 [8 0] [16 4]] (REQUEST)
r 1.047457599 _24_ RTR  --- 0 AODV 48 [0 ffffffff 1e 800] ------- [30:255 -1:255 28 0] [0x2 3 1 [8 0] [16 4]] (REQUEST)
r 1.047457622 _53_ RTR  --- 0 AODV 48 [0 ffffffff 1e 800] ------- [30:255 -1:255 28 0] [0x2 3 1 [8 0] [16 4]] (REQUEST)
r 1.047457624 _13_ RTR  --- 0 AODV 48 [0 ffffffff 1e 800] ------- [30:255 -1:255 28 0] [0x2 3 1 [8 0] [16 4]] (REQUEST)
r 1.047457709 _35_ RTR  --- 0 AODV 48 [0 ffffffff 1e 800] ------- [30:255 -1:255 28 0] [0x2 3 1 [8 0] [16 4]] (REQUEST)
s 1.047881217 _52_ RTR  --- 0 AODV 48 [0 ffffffff 1e 800] ------- [52:255 -1:255 27 0] [0x2 4 1 [8 0] [16 4]] (REQUEST)
s 1.048920810 _43_ RTR  --- 0 AODV 48 [0 ffffffff 23 800] ------- [43:255 -1:255 28 0] [0x2 3 1 [8 0] [16 4]] (REQUEST)
r 1.049673742 _18_ RTR  --- 0 AODV 48 [0 ffffffff 13 800] ------- [19:255 -1:255 29 0] [0x2 2 1 [8 0] [16 4]] (REQUEST)
r 1.049673852 _9_ RTR  --- 0 AODV 48 [0 ffffffff 13 800] ------- [19:255 -1:255 29 0] [0x2 2 1 [8 0] [16 4]] (REQUEST)
r 1.049673852 _29_ RTR  --- 0 AODV 48 [0 ffffffff 13 800] ------- [19:255 -1:255 29 0] [0x2 2 1 [8 0] [16 4]] (REQUEST)
r 1.049673899 _8_ RTR  --- 0 AODV 48 [0 ffffffff 13 800] ------- [19:255 -1:255 29 0] [0x2 2 1 [8 0] [16 4]] (REQUEST)
r 1.049673899 _28_ RTR  --- 0 AODV 48 [0 ffffffff 13 800] ------- [19:255 -1:255 29 0] [0x2 2 1 [8 0] [16 4]] (REQUEST)
r 1.049673909 _17_ RTR  --- 0 AODV 48 [0 ffffffff 13 800] ------- [19:255 -1:255 29 0] [0x2 2 1 [8 0] [16 4]] (REQUEST)
r 1.049674009 _7_ RTR  --- 0 AODV 48 [0 ffffffff 13 800] ------- [19:255 -1:255 29 0] [0x2 2 1 [8 0] [16 4]] (REQUEST)
r 1.049689791 _44_ RTR  --- 0 AODV 48 [0 ffffffff 2d 800] ------- [45:255 -1:255 28 0] [0x2 3 1 [8 0] [16 4]] (REQUEST)
r 1.049689791 _46_ RTR  --- 0 AODV 48 [0 ffffffff 2d 800] ------- [45:255 -1:255 28 0] [0x2 3 1 [8 0] [16 4]] (REQUEST)
r 1.049689901 _35_ RTR  --- 0 AODV 48 [0 ffffffff 2d 800] ------- [45:255 -1:255 28 0] [0x2 3 1 [8 0] [16 4]] (REQUEST)
r 1.049689901 _55_ RTR  --- 0 AODV 48 [0 ffffffff 2d 800] ------- [45:255 -1:255 28 0] [0x2 3 1 [8 0] [16 4]] (REQUEST)
r 1.049689947 _36_ RTR  --- 0 AODV 48 [0 ffffffff 2d 800] ------- [45:255 -1:255 28 0] [0x2 3 1 [8 0] [16 4]] (REQUEST)
r 1.049689947 _54_ RTR  --- 0 AODV 48 [0 ffffffff 2d 800] ------- [45:255 -1:255 28 0] [0x2 3 1 [8 0] [16 4]] (REQUEST)
r 1.049689947 _56_ RTR  --- 0 AODV 48 [0 ffffffff 2d 800] ------- [45:255 -1:255 28 0] [0x2 3 1 [8 0] [16 4]] (REQUEST)
r 1.049689957 _43_ RTR  --- 0 AODV 48 [0 ffffffff 2d 800] ------- [45:255 -1:255 28 0] [0x2 3 1 [8 0] [16 4]] (REQUEST)
r 1.049689957 _47_ RTR  --- 0 AODV 48 [0 ffffffff 2d 800] ------- [45:255 -1:255 28 0] [0x2 3 1 [8 0] [16 4]] (REQUEST)
r 1.049690057 _53_ RTR  --- 0 AODV 48 [0 ffffffff 2d 800] ------- [45:255 -1:255 28 0] [0x2 3 1 [8 0] [16 4]] (REQUEST)
r 1.049690057 _57_ RTR  --- 0 AODV 48 [0 ffffffff 2d 800] ------- [45:255 -1:255 28 0] [0x2 3 1 [8 0] [16 4]] (REQUEST)
r 1.049690195 _58_ RTR  --- 0 AODV 48 [0 ffffffff 2d 800] ------- [45:255 -1:255 28 0] [0x2 3 1 [8 0] [16 4]] (REQUEST)
r 1.049723004 _20_ RTR  --- 0 AODV 48 [0 ffffffff 15 800] ------- [21:255 -1:255 28 0] [0x2 3 1 [8 0] [16 4]] (REQUEST)
r 1.049723004 _22_ RTR  --- 0 AODV 48 [0 ffffffff 15 800] ------- [21:255 -1:255 28 0] [0x2 3 1 [8 0] [16 4]] (REQUEST)
r 1.049723114 _11_ RTR  --- 0 AODV 48 [0 ffffffff 15 800] ------- [21:255 -1:255 28 0] [0x2 3 1 [8 0] [16 4]] (REQUEST)
r 1.049723117 _31_ RTR  --- 0 AODV 48 [0 ffffffff 15 800] ------- [21:255 -1:255 28 0] [0x2 3 1 [8 0] [16 4]] (REQUEST)
r 1.049723160 _12_ RTR  --- 0 AODV 48 [0 ffffffff 15 800] ------- [21:255 -1:255 28 0] [0x2 3 1 [8 0] [16 4]] (REQUEST)
r 1.049723160 _10_ RTR  --- 0 AODV 48 [0 ffffffff 15 800] ------- [21:255 -1:255 28 0] [0x2 3 1 [8 0] [16 4]] (REQUEST)
r 1.049723163 _30_ RTR  --- 0 AODV 48 [0 ffffffff 15 800] ------- [21:255 -1:255 28 0] [0x2 3 1 [8 0] [16 4]] (REQUEST)
r 1.049723170 _23_ RTR  --- 0 AODV 48 [0 ffffffff 15 800] ------- [21:255 -1:255 28 0] [0x2 3 1 [8 0] [16 4]] (REQUEST)
r 1.049723270 _13_ RTR  --- 0 AODV 48 [0 ffffffff 15 800] ------- [21:255 -1:255 28 0] [0x2 3 1 [8 0] [16 4]] (REQUEST)
r 1.049723390 _1_ RTR  --- 0 AODV 48 [0 ffffffff 15 800] ------- [21:255 -1:255 28 0] [0x2 3 1 [8 0] [16 4]] (REQUEST)
r 1.049723415 _0_ RTR  --- 0 AODV 48 [0 ffffffff 15 800] ------- [21:255 -1:255 28 0] [0x2 3 1 [8 0] [16 4]] (REQUEST)
s 1.050588638 _42_ RTR  --- 0 AODV 48 [0 ffffffff 1e 800] ------- [42:255 -1:255 27 0] [0x2 4 1 [8 0] [16 4]] (REQUEST)
s 1.050919873 _50_ RTR  --- 0 AODV 48 [0 ffffffff 1e 800] ------- [50:255 -1:255 27 0] [0x2 4 1 [8 0] [16 4]] (REQUEST)
r 1.052123384 _51_ RTR  --- 0 AODV 48 [0 ffffffff 34 800] ------- [52:255 -1:255 27 0] [0x2 4 1 [8 0] [16 4]] (REQUEST)
r 1.052123384 _53_ RTR  --- 0 AODV 48 [0 ffffffff 34 800] ------- [52:255 -1:255 27 0] [0x2 4 1 [8 0] [16 4]] (REQUEST)
r 1.052203939 _8_ RTR  --- 0 AODV 48 [0 ffffffff 9 800] ------- [9:255 -1:255 29 0] [0x2 2 1 [8 0] [16 4]] (REQUEST)
r 1.052204049 _19_ RTR  --- 0 AODV 48 [0 ffffffff 9 800] ------- [9:255 -1:255 29 0] [0x2 2 1 [8 0] [16 4]] (REQUEST)
r 1.052204095 _18_ RTR  --- 0 AODV 48 [0 ffffffff 9 800] ------- [9:255 -1:255 29 0] [0x2 2 1 [8 0] [16 4]] (REQUEST)
r 1.052204105 _7_ RTR  --- 0 AODV 48 [0 ffffffff 9 800] ------- [9:255 -1:255 29 0] [0x2 2 1 [8 0] [16 4]] (REQUEST)
r 1.052204205 _17_ RTR  --- 0 AODV 48 [0 ffffffff 9 800] ------- [9:255 -1:255 29 0] [0x2 2 1 [8 0] [16 4]] (REQUEST)
r 1.052371400 _11_ RTR  --- 0 AODV 48 [0 ffffffff a 800] ------- [10:255 -1:255 28 0] [0x2 3 1 [8 0] [16 4]] (REQUEST)
r 1.052371510 _0_ RTR  --- 0 AODV 48 [0 ffffffff a 800] ------- [10:255 -1:255 28 0] [0x2 3 1 [8 0] [16 4]] (REQUEST)
r 1.052371556 _1_ RTR  --- 0 AODV 48 [0 ffffffff a 800] ------- [10:255 -1:255 28 0] [0x2 3 1 [8 0] [16 4]] (REQUEST)
s 1.053516236 _59_ RTR  --- 0 AODV 48 [0 ffffffff 30 800] ------- [59:255 -1:255 27 0] [0x2 4 1 [8 0] [16 4]] (REQUEST)
s 1.053670137 _58_ RTR  --- 0 AODV 48 [0 ffffffff 30 800] ------- [58:255 -1:255 27 0] [0x2 4 1 [8 0] [16 4]] (REQUEST)
s 1.054634177 _53_ RTR  --- 0 AODV 48 [0 ffffffff 1e 800] ------- [53:255 -1:255 27 0] [0x2 4 1 [8 0] [16 4]] (REQUEST)
s 1.054870723 _49_ RTR  --- 0 AODV 48 [0 ffffffff 30 800] ------- [49:255 -1:255 27 0] [0x2 4 1 [8 0] [16 4]] (REQUEST)
s 1.054929506 _40_ RTR  --- 0 AODV 48 [0 ffffffff 1e 800] ------- [40:255 -1:255 27 0] [0x2 4 1 [8 0] [16 4]] (REQUEST)
r 1.055150805 _41_ RTR  --- 0 AODV 48 [0 ffffffff 2a 800] ------- [42:255 -1:255 27 0] [0x2 4 1 [8 0] [16 4]] (REQUEST)
s 1.055611043 _41_ RTR  --- 0 AODV 48 [0 ffffffff 1e 800] ------- [41:255 -1:255 27 0] [0x2 4 1 [8 0] [16 4]] (REQUEST)
s 1.056202555 _51_ RTR  --- 0 AODV 48 [0 ffffffff 1e 800] ------- [51:255 -1:255 27 0] [0x2 4 1 [8 0] [16 4]] (REQUEST)
s 1.056544878 _33_ AGT  --- 2 tcp 40 [0 0 0 0] ------- [33:1 55:1 32 0] [0 0] 0 0
r 1.056544878 _33_ RTR  --- 2 tcp 40 [0 0 0 0] ------- [33:1 55:1 32 0] [0 0] 0 0
s 1.056544878 _33_ RTR  --- 0 AODV 48 [0 0 0 0] ------- [33:255 -1:255 30 0] [0x2 1 1 [55 0] [33 4]] (REQUEST)
r 1.057274795 _46_ RTR  --- 0 AODV 48 [0 ffffffff 2f 800] ------- [47:255 -1:255 28 0] [0x2 3 1 [8 0] [16 4]] (REQUEST)
r 1.057274905 _57_ RTR  --- 0 AODV 48 [0 ffffffff 2f 800] ------- [47:255 -1:255 28 0] [0x2 3 1 [8 0] [16 4]] (REQUEST)
r 1.057274951 _56_ RTR  --- 0 AODV 48 [0 ffffffff 2f 800] ------- [47:255 -1:255 28 0] [0x2 3 1 [8 0] [16 4]] (REQUEST)
r 1.057405273 _39_ RTR  --- 0 AODV 48 [0 ffffffff 26 800] ------- [38:255 -1:255 29 0] [0x2 2 1 [8 0] [16 4]] (REQUEST)
r 1.057405386 _28_ RTR  --- 0 AODV 48 [0 ffffffff 26 800] ------- [38:255 -1:255 29 0] [0x2 2 1 [8 0] [16 4]] (REQUEST)
r 1.057405432 _29_ RTR  --- 0 AODV 48 [0 ffffffff 26 800] ------- [38:255 -1:255 29 0] [0x2 2 1 [8 0] [16 4]] (REQUEST)
r 1.059419228 _54_ RTR  --- 0 AODV 48 [0 ffffffff 37 800] ------- [55:255 -1:255 28 0] [0x2 3 1 [8 0] [16 4]] (REQUEST)
r 1.059419228 _56_ RTR  --- 0 AODV 48 [0 ffffffff 37 800] ------- [55:255 -1:255 28 0] [0x2 3 1 [8 0] [16 4]] (REQUEST)