s 1.106011134 _29_ AGT  --- 0 tcp 40 [0 0 0 0] ------- [29:1 7:1 32 0] [0 0] 0 0
r 1.106011134 _29_ RTR  --- 0 tcp 40 [0 0 0 0] ------- [29:1 7:1 32 0] [0 0] 0 0
s 1.106011134 _29_ RTR  --- 0 AODV 48 [0 0 0 0] ------- [29:255 -1:255 30 0] [0x2 1 1 [7 0] [29 4]] (REQUEST)
r 1.109933340 _28_ RTR  --- 0 AODV 48 [0 ffffffff 1d 800] ------- [29:255 -1:255 30 0] [0x2 1 1 [7 0] [29 4]] (REQUEST)
r 1.109933344 _30_ RTR  --- 0 AODV 48 [0 ffffffff 1d 800] ------- [29:255 -1:255 30 0] [0x2 1 1 [7 0] [29 4]] (REQUEST)
r 1.109933467 _21_ RTR  --- 0 AODV 48 [0 ffffffff 1d 800] ------- [29:255 -1:255 30 0] [0x2 1 1 [7 0] [29 4]] (REQUEST)
r 1.109933467 _37_ RTR  --- 0 AODV 48 [0 ffffffff 1d 800] ------- [29:255 -1:255 30 0] [0x2 1 1 [7 0] [29 4]] (REQUEST)
r 1.109933526 _20_ RTR  --- 0 AODV 48 [0 ffffffff 1d 800] ------- [29:255 -1:255 30 0] [0x2 1 1 [7 0] [29 4]] (REQUEST)
r 1.109933526 _36_ RTR  --- 0 AODV 48 [0 ffffffff 1d 800] ------- [29:255 -1:255 30 0] [0x2 1 1 [7 0] [29 4]] (REQUEST)
r 1.109933528 _22_ RTR  --- 0 AODV 48 [0 ffffffff 1d 800] ------- [29:255 -1:255 30 0] [0x2 1 1 [7 0] [29 4]] (REQUEST)
r 1.109933528 _38_ RTR  --- 0 AODV 48 [0 ffffffff 1d 800] ------- [29:255 -1:255 30 0] [0x2 1 1 [7 0] [29 4]] (REQUEST)
r 1.109933550 _27_ RTR  --- 0 AODV 48 [0 ffffffff 1d 800] ------- [29:255 -1:255 30 0] [0x2 1 1 [7 0] [29 4]] (REQUEST)
r 1.109933550 _31_ RTR  --- 0 AODV 48 [0 ffffffff 1d 800] ------- [29:255 -1:255 30 0] [0x2 1 1 [7 0] [29 4]] (REQUEST)
r 1.109933667 _23_ RTR  --- 0 AODV 48 [0 ffffffff 1d 800] ------- [29:255 -1:255 30 0] [0x2 1 1 [7 0] [29 4]] (REQUEST)
r 1.109933667 _19_ RTR  --- 0 AODV 48 [0 ffffffff 1d 800] ------- [29:255 -1:255 30 0] [0x2 1 1 [7 0] [29 4]] (REQUEST)
r 1.109933667 _35_ RTR  --- 0 AODV 48 [0 ffffffff 1d 800] ------- [29:255 -1:255 30 0] [0x2 1 1 [7 0] [29 4]] (REQUEST)
r 1.109933667 _39_ RTR  --- 0 AODV 48 [0 ffffffff 1d 800] ------- [29:255 -1:255 30 0] [0x2 1 1 [7 0] [29 4]] (REQUEST)
r 1.109933757 _26_ RTR  --- 0 AODV 48 [0 ffffffff 1d 800] ------- [29:255 -1:255 30 0] [0x2 1 1 [7 0] [29 4]] (REQUEST)
r 1.109933800 _13_ RTR  --- 0 AODV 48 [0 ffffffff 1d 800] ------- [29:255 -1:255 30 0] [0x2 1 1 [7 0] [29 4]] (REQUEST)
r 1.109933832 _12_ RTR  --- 0 AODV 48 [0 ffffffff 1d 800] ------- [29:255 -1:255 30 0] [0x2 1 1 [7 0] [29 4]] (REQUEST)
r 1.109933833 _14_ RTR  --- 0 AODV 48 [0 ffffffff 1d 800] ------- [29:255 -1:255 30 0] [0x2 1 1 [7 0] [29 4]] (REQUEST)
r 1.109933840 _18_ RTR  --- 0 AODV 48 [0 ffffffff 1d 800] ------- [29:255 -1:255 30 0] [0x2 1 1 [7 0] [29 4]] (REQUEST)
r 1.109933840 _34_ RTR  --- 0 AODV 48 [0 ffffffff 1d 800] ------- [29:255 -1:255 30 0] [0x2 1 1 [7 0] [29 4]] (REQUEST)
r 1.109933920 _15_ RTR  --- 0 AODV 48 [0 ffffffff 1d 800] ------- [29:255 -1:255 30 0] [0x2 1 1 [7 0] [29 4]] (REQUEST)
r 1.109933920 _11_ RTR  --- 0 AODV 48 [0 ffffffff 1d 800] ------- [29:255 -1:255 30 0] [0x2 1 1 [7 0] [29 4]] (REQUEST)
r 1.109933967 _25_ RTR  --- 0 AODV 48 [0 ffffffff 1d 800] ------- [29:255 -1:255 30 0] [0x2 1 1 [7 0] [29 4]] (REQUEST)
s 1.110328586 _31_ RTR  --- 0 AODV 48 [0 ffffffff 1d 800] ------- [31:255 -1:255 29 0] [0x2 2 1 [7 0] [29 4]] (REQUEST)
s 1.110520736 _26_ RTR  --- 0 AODV 48 [0 ffffffff 1d 800] ------- [26:255 -1:255 29 0] [0x2 2 1 [7 0] [29 4]] (REQUEST)
s 1.110578418 _22_ RTR  --- 0 AODV 48 [0 ffffffff 1d 800] ------- [22:255 -1:255 29 0] [0x2 2 1 [7 0] [29 4]] (REQUEST)
s 1.111518663 _20_ RTR  --- 0 AODV 48 [0 ffffffff 1d 800] ------- [20:255 -1:255 29 0] [0x2 2 1 [7 0] [29 4]] (REQUEST)
s 1.111700376 _38_ RTR  --- 0 AODV 48 [0 ffffffff 1d 800] ------- [38:255 -1:255 29 0] [0x2 2 1 [7 0] [29 4]] (REQUEST)
s 1.112201974 _35_ RTR  --- 0 AODV 48 [0 ffffffff 1d 800] ------- [35:255 -1:255 29 0] [0x2 2 1 [7 0] [29 4]] (REQUEST)
s 1.112223609 _34_ RTR  --- 0 AODV 48 [0 ffffffff 1d 800] ------- [34:255 -1:255 29 0] [0x2 2 1 [7 0] [29 4]] (REQUEST)
s 1.112288932 _36_ RTR  --- 0 AODV 48 [0 ffffffff 1d 800] ------- [36:255 -1:255 29 0] [0x2 2 1 [7 0] [29 4]] (REQUEST)
s 1.113333414 _13_ RTR  --- 0 AODV 48 [0 ffffffff 1d 800] ------- [13:255 -1:255 29 0] [0x2 2 1 [7 0] [29 4]] (REQUEST)
r 1.114250792 _30_ RTR  --- 0 AODV 48 [0 ffffffff 1f 800] ------- [31:255 -1:255 29 0] [0x2 2 1 [7 0] [29 4]] (REQUEST)
r 1.114250919 _23_ RTR  --- 0 AODV 48 [0 ffffffff 1f 800] ------- [31:255 -1:255 29 0] [0x2 2 1 [7 0] [29 4]] (REQUEST)
r 1.114250919 _39_ RTR  --- 0 AODV 48 [0 ffffffff 1f 800] ------- [31:255 -1:255 29 0] [0x2 2 1 [7 0] [29 4]] (REQUEST)
r 1.114250978 _22_ RTR  --- 0 AODV 48 [0 ffffffff 1f 800] ------- [31:255 -1:255 29 0] [0x2 2 1 [7 0] [29 4]] (REQUEST)
r 1.114250978 _38_ RTR  --- 0 AODV 48 [0 ffffffff 1f 800] ------- [31:255 -1:255 29 0] [0x2 2 1 [7 0] [29 4]] (REQUEST)
r 1.114251002 _29_ RTR  --- 0 AODV 48 [0 ffffffff 1f 800] ------- [31:255 -1:255 29 0] [0x2 2 1 [7 0] [29 4]] (REQUEST)
r 1.114251119 _21_ RTR  --- 0 AODV 48 [0 ffffffff 1f 800] ------- [31:255 -1:255 29 0] [0x2 2 1 [7 0] [29 4]] (REQUEST)
r 1.114251119 _37_ RTR  --- 0 AODV 48 [0 ffffffff 1f 800] ------- [31:255 -1:255 29 0] [0x2 2 1 [7 0] [29 4]] (REQUEST)
r 1.114251209 _28_ RTR  --- 0 AODV 48 [0 ffffffff 1f 800] ------- [31:255 -1:255 29 0] [0x2 2 1 [7 0] [29 4]] (REQUEST)
r 1.114251252 _15_ RTR  --- 0 AODV 48 [0 ffffffff 1f 800] ------- [31:255 -1:255 29 0] [0x2 2 1 [7 0] [29 4]] (REQUEST)
r 1.114251284 _14_ RTR  --- 0 AODV 48 [0 ffffffff 1f 800] ------- [31:255 -1:255 29 0] [0x2 2 1 [7 0] [29 4]] (REQUEST)
r 1.114251292 _20_ RTR  --- 0 AODV 48 [0 ffffffff 1f 800] ------- [31:255 -1:255 29 0] [0x2 2 1 [7 0] [29 4]] (REQUEST)
r 1.114251292 _36_ RTR  --- 0 AODV 48 [0 ffffffff 1f 800] ------- [31:255 -1:255 29 0] [0x2 2 1 [7 0] [29 4]] (REQUEST)
r 1.114251372 _13_ RTR  --- 0 AODV 48 [0 ffffffff 1f 800] ------- [31:255 -1:255 29 0] [0x2 2 1 [7 0] [29 4]] (REQUEST)
r 1.114251419 _27_ RTR  --- 0 AODV 48 [0 ffffffff 1f 800] ------- [31:255 -1:255 29 0] [0x2 2 1 [7 0] [29 4]] (REQUEST)
s 1.114267943 _18_ RTR  --- 0 AODV 48 [0 ffffffff 1d 800] ------- [18:255 -1:255 29 0] [0x2 2 1 [7 0] [29 4]] (REQUEST)
s 1.114352351 _15_ RTR  --- 0 AODV 48 [0 ffffffff 1d 800] ------- [15:255 -1:255 29 0] [0x2 2 1 [7 0] [29 4]] (REQUEST)
s 1.114533704 _25_ RTR  --- 0 AODV 48 [0 ffffffff 1d 800] ------- [25:255 -1:255 29 0] [0x2 2 1 [7 0] [29 4]] (REQUEST)
s 1.114781081 _28_ RTR  --- 0 AODV 48 [0 ffffffff 1d 800] ------- [28:255 -1:255 29 0] [0x2 2 1 [7 0] [29 4]] (REQUEST)
s 1.115718679 _23_ RTR  --- 0 AODV 48 [0 ffffffff 1d 800] ------- [23:255 -1:255 29 0] [0x2 2 1 [7 0] [29 4]] (REQUEST)
s 1.116162366 _21_ RTR  --- 0 AODV 48 [0 ffffffff 1d 800] ------- [21:255 -1:255 29 0] [0x2 2 1 [7 0] [29 4]] (REQUEST)
s 1.116304627 _14_ RTR  --- 0 AODV 48 [0 ffffffff 1d 800] ------- [14:255 -1:255 29 0] [0x2 2 1 [7 0] [29 4]] (REQUEST)
r 1.116582582 _39_ RTR  --- 0 AODV 48 [0 ffffffff 26 800] ------- [38:255 -1:255 29 0] [0x2 2 1 [7 0] [29 4]] (REQUEST)
r 1.116582586 _37_ RTR  --- 0 AODV 48 [0 ffffffff 26 800] ------- [38:255 -1:255 29 0] [0x2 2 1 [7 0] [29 4]] (REQUEST)
r 1.116582709 _30_ RTR  --- 0 AODV 48 [0 ffffffff 26 800] ------- [38:255 -1:255 29 0] [0x2 2 1 [7 0] [29 4]] (REQUEST)
r 1.116582768 _31_ RTR  --- 0 AODV 48 [0 ffffffff 26 800] ------- [38:255 -1:255 29 0] [0x2 2 1 [7 0] [29 4]] (REQUEST)
r 1.116582770 _29_ RTR  --- 0 AODV 48 [0 ffffffff 26 800] ------- [38:255 -1:255 29 0] [0x2 2 1 [7 0] [29 4]] (REQUEST)
r 1.116582792 _36_ RTR  --- 0 AODV 48 [0 ffffffff 26 800] ------- [38:255 -1:255 29 0] [0x2 2 1 [7 0] [29 4]] (REQUEST)
r 1.116582909 _28_ RTR  --- 0 AODV 48 [0 ffffffff 26 800] ------- [38:255 -1:255 29 0] [0x2 2 1 [7 0] [29 4]] (REQUEST)
r 1.116583002 _35_ RTR  --- 0 AODV 48 [0 ffffffff 26 800] ------- [38:255 -1:255 29 0] [0x2 2 1 [7 0] [29 4]] (REQUEST)
r 1.116583042 _22_ RTR  --- 0 AODV 48 [0 ffffffff 26 800] ------- [38:255 -1:255 29 0] [0x2 2 1 [7 0] [29 4]] (REQUEST)
r 1.116583074 _23_ RTR  --- 0 AODV 48 [0 ffffffff 26 800] ------- [38:255 -1:255 29 0] [0x2 2 1 [7 0] [29 4]] (REQUEST)
r 1.116583075 _21_ RTR  --- 0 AODV 48 [0 ffffffff 26 800] ------- [38:255 -1:255 29 0] [0x2 2 1 [7 0] [29 4]] (REQUEST)
r 1.116583086 _27_ RTR  --- 0 AODV 48 [0 ffffffff 26 800] ------- [38:255 -1:255 29 0] [0x2 2 1 [7 0] [29 4]] (REQUEST)
r 1.116583162 _20_ RTR  --- 0 AODV 48 [0 ffffffff 26 800] ------- [38:255 -1:255 29 0] [0x2 2 1 [7 0] [29 4]] (REQUEST)
r 1.116583209 _34_ RTR  --- 0 AODV 48 [0 ffffffff 26 800] ------- [38:255 -1:255 29 0] [0x2 2 1 [7 0] [29 4]] (REQUEST)
s 1.116995749 _19_ RTR  --- 0 AODV 48 [0 ffffffff 1d 800] ------- [19:255 -1:255 29 0] [0x2 2 1 [7 0] [29 4]] (REQUEST)
s 1.117874211 _12_ RTR  --- 0 AODV 48 [0 ffffffff 1d 800] ------- [12:255 -1:255 29 0] [0x2 2 1 [7 0] [29 4]] (REQUEST)
s 1.118236080 _39_ RTR  --- 0 AODV 48 [0 ffffffff 1d 800] ------- [39:255 -1:255 29 0] [0x2 2 1 [7 0] [29 4]] (REQUEST)
s 1.118441295 _37_ RTR  --- 0 AODV 48 [0 ffffffff 1d 800] ------- [37:255 -1:255 29 0] [0x2 2 1 [7 0] [29 4]] (REQUEST)
s 1.118646998 _27_ RTR  --- 0 AODV 48 [0 ffffffff 1d 800] ------- [27:255 -1:255 29 0] [0x2 2 1 [7 0] [29 4]] (REQUEST)
s 1.118901352 _30_ RTR  --- 0 AODV 48 [0 ffffffff 1d 800] ------- [30:255 -1:255 29 0] [0x2 2 1 [7 0] [29 4]] (REQUEST)
r 1.119023291 _27_ RTR  --- 0 AODV 48 [0 ffffffff 1c 800] ------- [28:255 -1:255 29 0] [0x2 2 1 [7 0] [29 4]] (REQUEST)
r 1.119023414 _36_ RTR  --- 0 AODV 48 [0 ffffffff 1c 800] ------- [28:255 -1:255 29 0] [0x2 2 1 [7 0] [29 4]] (REQUEST)
r 1.119023473 _37_ RTR  --- 0 AODV 48 [0 ffffffff 1c 800] ------- [28:255 -1:255 29 0] [0x2 2 1 [7 0] [29 4]] (REQUEST)
r 1.119023475 _35_ RTR  --- 0 AODV 48 [0 ffffffff 1c 800] ------- [28:255 -1:255 29 0] [0x2 2 1 [7 0] [29 4]] (REQUEST)
r 1.119023498 _26_ RTR  --- 0 AODV 48 [0 ffffffff 1c 800] ------- [28:255 -1:255 29 0] [0x2 2 1 [7 0] [29 4]] (REQUEST)
r 1.119023615 _34_ RTR  --- 0 AODV 48 [0 ffffffff 1c 800] ------- [28:255 -1:255 29 0] [0x2 2 1 [7 0] [29 4]] (REQUEST)
r 1.119108624 _23_ RTR  --- 0 AODV 48 [0 ffffffff 16 800] ------- [22:255 -1:255 29 0] [0x2 2 1 [7 0] [29 4]] (REQUEST)
r 1.119108751 _14_ RTR  --- 0 AODV 48 [0 ffffffff 16 800] ------- [22:255 -1:255 29 0] [0x2 2 1 [7 0] [29 4]] (REQUEST)
r 1.119108810 _15_ RTR  --- 0 AODV 48 [0 ffffffff 16 800] ------- [22:255 -1:255 29 0] [0x2 2 1 [7 0] [29 4]] (REQUEST)
s 1.119333108 _11_ RTR  --- 0 AODV 48 [0 ffffffff 1d 800] ------- [11:255 -1:255 29 0] [0x2 2 1 [7 0] [29 4]] (REQUEST)
r 1.121602557 _14_ RTR  --- 0 AODV 48 [0 ffffffff f 800] ------- [15:255 -1:255 29 0] [0x2 2 1 [7 0] [29 4]] (REQUEST)
r 1.121602684 _7_ RTR  --- 0 AODV 48 [0 ffffffff f 800] ------- [15:255 -1:255 29 0] [0x2 2 1 [7 0] [29 4]] (REQUEST)
r 1.121602684 _23_ RTR  --- 0 AODV 48 [0 ffffffff f 800] ------- [15:255 -1:255 29 0] [0x2 2 1 [7 0] [29 4]] (REQUEST)
s 1.121602684 _7_ RTR  --- 0 AODV 44 [0 0 0 0] ------- [7:255 29:255 30 15] [0x4 1 [7 4] 10.000000] (REPLY)
r 1.121602743 _6_ RTR  --- 0 AODV 48 [0 ffffffff f 800] ------- [15:255 -1:255 29 0] [0x2 2 1 [7 0] [29 4]] (REQUEST)
r 1.121602743 _22_ RTR  --- 0 AODV 48 [0 ffffffff f 800] ------- [15:255 -1:255 29 0] [0x2 2 1 [7 0] [29 4]] (REQUEST)
r 1.121602767 _13_ RTR  --- 0 AODV 48 [0 ffffffff f 800] ------- [15:255 -1:255 29 0] [0x2 2 1 [7 0] [29 4]] (REQUEST)
r 1.121602884 _5_ RTR  --- 0 AODV 48 [0 ffffffff f 800] ------- [15:255 -1:255 29 0] [0x2 2 1 [7 0] [29 4]] (REQUEST)
r 1.124103559 _31_ RTR  --- 0 AODV 48 [0 ffffffff 1e 800] ------- [30:255 -1:255 29 0] [0x2 2 1 [7 0] [29 4]] (REQUEST)
r 1.124103562 _29_ RTR  --- 0 AODV 48 [0 ffffffff 1e 800] ------- [30:255 -1:255 29 0] [0x2 2 1 [7 0] [29 4]] (REQUEST)
r 1.124103686 _22_ RTR  --- 0 AODV 48 [0 ffffffff 1e 800] ------- [30:255 -1:255 29 0] [0x2 2 1 [7 0] [29 4]] (REQUEST)
r 1.124103686 _38_ RTR  --- 0 AODV 48 [0 ffffffff 1e 800] ------- [30:255 -1:255 29 0] [0x2 2 1 [7 0] [29 4]] (REQUEST)
r 1.124103744 _23_ RTR  --- 0 AODV 48 [0 ffffffff 1e 800] ------- [30:255 -1:255 29 0] [0x2 2 1 [7 0] [29 4]] (REQUEST)
r 1.124103744 _39_ RTR  --- 0 AODV 48 [0 ffffffff 1e 800] ------- [30:255 -1:255 29 0] [0x2 2 1 [7 0] [29 4]] (REQUEST)
r 1.124103746 _21_ RTR  --- 0 AODV 48 [0 ffffffff 1e 800] ------- [30:255 -1:255 29 0] [0x2 2 1 [7 0] [29 4]] (REQUEST)
r 1.124103746 _37_ RTR  --- 0 AODV 48 [0 ffffffff 1e 800] ------- [30:255 -1:255 29 0] [0x2 2 1 [7 0] [29 4]] (REQUEST)
r 1.124103769 _28_ RTR  --- 0 AODV 48 [0 ffffffff 1e 800] ------- [30:255 -1:255 29 0] [0x2 2 1 [7 0] [29 4]] (REQUEST)
r 1.124103886 _20_ RTR  --- 0 AODV 48 [0 ffffffff 1e 800] ------- [30:255 -1:255 29 0] [0x2 2 1 [7 0] [29 4]] (REQUEST)
r 1.124103886 _36_ RTR  --- 0 AODV 48 [0 ffffffff 1e 800] ------- [30:255 -1:255 29 0] [0x2 2 1 [7 0] [29 4]] (REQUEST)
r 1.124103979 _27_ RTR  --- 0 AODV 48 [0 ffffffff 1e 800] ------- [30:255 -1:255 29 0] [0x2 2 1 [7 0] [29 4]] (REQUEST)
r 1.124104019 _14_ RTR  --- 0 AODV 48 [0 ffffffff 1e 800] ------- [30:255 -1:255 29 0] [0x2 2 1 [7 0] [29 4]] (REQUEST)
r 1.124104050 _15_ RTR  --- 0 AODV 48 [0 ffffffff 1e 800] ------- [30:255 -1:255 29 0] [0x2 2 1 [7 0] [29 4]] (REQUEST)
r 1.124104051 _13_ RTR  --- 0 AODV 48 [0 ffffffff 1e 800] ------- [30:255 -1:255 29 0] [0x2 2 1 [7 0] [29 4]] (REQUEST)
r 1.124104062 _19_ RTR  --- 0 AODV 48 [0 ffffffff 1e 800] ------- [30:255 -1:255 29 0] [0x2 2 1 [7 0] [29 4]] (REQUEST)
r 1.124104062 _35_ RTR  --- 0 AODV 48 [0 ffffffff 1e 800] ------- [30:255 -1:255 29 0] [0x2 2 1 [7 0] [29 4]] (REQUEST)
r 1.124104138 _12_ RTR  --- 0 AODV 48 [0 ffffffff 1e 800] ------- [30:255 -1:255 29 0] [0x2 2 1 [7 0] [29 4]] (REQUEST)
r 1.124104186 _26_ RTR  --- 0 AODV 48 [0 ffffffff 1e 800] ------- [30:255 -1:255 29 0] [0x2 2 1 [7 0] [29 4]] (REQUEST)
s 1.125921553 _6_ RTR  --- 0 AODV 48 [0 ffffffff f 800] ------- [6:255 -1:255 28 0] [0x2 3 1 [7 0] [29 4]] (REQUEST)
r 1.126331502 _36_ RTR  --- 0 AODV 48 [0 ffffffff 25 800] ------- [37:255 -1:255 29 0] [0x2 2 1 [7 0] [29 4]] (REQUEST)
r 1.126331505 _38_ RTR  --- 0 AODV 48 [0 ffffffff 25 800] ------- [37:255 -1:255 29 0] [0x2 2 1 [7 0] [29 4]] (REQUEST)
r 1.126331628 _29_ RTR  --- 0 AODV 48 [0 ffffffff 25 800] ------- [37:255 -1:255 29 0] [0x2 2 1 [7 0] [29 4]] (REQUEST)
r 1.126331687 _28_ RTR  --- 0 AODV 48 [0 ffffffff 25 800] ------- [37:255 -1:255 29 0] [0x2 2 1 [7 0] [29 4]] (REQUEST)
r 1.126331689 _30_ RTR  --- 0 AODV 48 [0 ffffffff 25 800] ------- [37:255 -1:255 29 0] [0x2 2 1 [7 0] [29 4]] (REQUEST)
r 1.126331712 _35_ RTR  --- 0 AODV 48 [0 ffffffff 25 800] ------- [37:255 -1:255 29 0] [0x2 2 1 [7 0] [29 4]] (REQUEST)
r 1.126331712 _39_ RTR  --- 0 AODV 48 [0 ffffffff 25 800] ------- [37:255 -1:255 29 0] [0x2 2 1 [7 0] [29 4]] (REQUEST)
r 1.126331828 _31_ RTR  --- 0 AODV 48 [0 ffffffff 25 800] ------- [37:255 -1:255 29 0] [0x2 2 1 [7 0] [29 4]] (REQUEST)
r 1.126331828 _27_ RTR  --- 0 AODV 48 [0 ffffffff 25 800] ------- [37:255 -1:255 29 0] [0x2 2 1 [7 0] [29 4]] (REQUEST)
r 1.126331918 _34_ RTR  --- 0 AODV 48 [0 ffffffff 25 800] ------- [37:255 -1:255 29 0] [0x2 2 1 [7 0] [29 4]] (REQUEST)
r 1.126331962 _21_ RTR  --- 0 AODV 48 [0 ffffffff 25 800] ------- [37:255 -1:255 29 0] [0x2 2 1 [7 0] [29 4]] (REQUEST)
r 1.126331993 _20_ RTR  --- 0 AODV 48 [0 ffffffff 25 800] ------- [37:255 -1:255 29 0] [0x2 2 1 [7 0] [29 4]] (REQUEST)
r 1.126331994 _22_ RTR  --- 0 AODV 48 [0 ffffffff 25 800] ------- [37:255 -1:255 29 0] [0x2 2 1 [7 0] [29 4]] (REQUEST)
r 1.126332002 _26_ RTR  --- 0 AODV 48 [0 ffffffff 25 800] ------- [37:255 -1:255 29 0] [0x2 2 1 [7 0] [29 4]] (REQUEST)
r 1.126332081 _23_ RTR  --- 0 AODV 48 [0 ffffffff 25 800] ------- [37:255 -1:255 29 0] [0x2 2 1 [7 0] [29 4]] (REQUEST)
r 1.126332081 _19_ RTR  --- 0 AODV 48 [0 ffffffff 25 800] ------- [37:255 -1:255 29 0] [0x2 2 1 [7 0] [29 4]] (REQUEST)
r 1.126332128 _33_ RTR  --- 0 AODV 48 [0 ffffffff 25 800] ------- [37:255 -1:255 29 0] [0x2 2 1 [7 0] [29 4]] (REQUEST)
s 1.126405439 _15_ AGT  --- 1 tcp 40 [0 0 0 0] ------- [15:0 23:0 32 0] [0 0] 0 0
r 1.126405439 _15_ RTR  --- 1 tcp 40 [0 0 0 0] ------- [15:0 23:0 32 0] [0 0] 0 0
s 1.126405439 _15_ RTR  --- 0 AODV 48 [0 0 0 0] ------- [15:255 -1:255 30 0] [0x2 1 1 [23 0] [15 4]] (REQUEST)
s 1.126477314 _5_ RTR  --- 0 AODV 48 [0 ffffffff f 800] ------- [5:255 -1:255 28 0] [0x2 3 1 [7 0] [29 4]] (REQUEST)
s 1.127838335 _28_ AGT  --- 2 tcp 40 [0 0 0 0] ------- [28:0 1:0 32 0] [0 0] 0 0
r 1.127838335 _28_ RTR  --- 2 tcp 40 [0 0 0 0] ------- [28:0 1:0 32 0] [0 0] 0 0
s 1.127838335 _28_ RTR  --- 0 AODV 48 [0 0 0 0] ------- [28:255 -1:255 30 0] [0x2 1 1 [1 0] [28 4]] (REQUEST)
r 1.128752870 _21_ RTR  --- 0 AODV 48 [0 ffffffff 14 800] ------- [20:255 -1:255 29 0] [0x2 2 1 [7 0] [29 4]] (REQUEST)
r 1.128752873 _19_ RTR  --- 0 AODV 48 [0 ffffffff 14 800] ------- [20:255 -1:255 29 0] [0x2 2 1 [7 0] [29 4]] (REQUEST)
r 1.128752996 _12_ RTR  --- 0 AODV 48 [0 ffffffff 14 800] ------- [20:255 -1:255 29 0] [0x2 2 1 [7 0] [29 4]] (REQUEST)
r 1.128752996 _28_ RTR  --- 0 AODV 48 [0 ffffffff 14 800] ------- [20:255 -1:255 29 0] [0x2 2 1 [7 0] [29 4]] (REQUEST)
r 1.128753055 _13_ RTR  --- 0 AODV 48 [0 ffffffff 14 800] ------- [20:255 -1:255 29 0] [0x2 2 1 [7 0] [29 4]] (REQUEST)
r 1.128753055 _29_ RTR  --- 0 AODV 48 [0 ffffffff 14 800] ------- [20:255 -1:255 29 0] [0x2 2 1 [7 0] [29 4]] (REQUEST)
r 1.128753057 _11_ RTR  --- 0 AODV 48 [0 ffffffff 14 800] ------- [20:255 -1:255 29 0] [0x2 2 1 [7 0] [29 4]] (REQUEST)
r 1.128753057 _27_ RTR  --- 0 AODV 48 [0 ffffffff 14 800] ------- [20:255 -1:255 29 0] [0x2 2 1 [7 0] [29 4]] (REQUEST)
r 1.128753080 _18_ RTR  --- 0 AODV 48 [0 ffffffff 14 800] ------- [20:255 -1:255 29 0] [0x2 2 1 [7 0] [29 4]] (REQUEST)
r 1.128753080 _22_ RTR  --- 0 AODV 48 [0 ffffffff 14 800] ------- [20:255 -1:255 29 0] [0x2 2 1 [7 0] [29 4]] (REQUEST)
r 1.128753197 _14_ RTR  --- 0 AODV 48 [0 ffffffff 14 800] ------- [20:255 -1:255 29 0] [0x2 2 1 [7 0] [29 4]] (REQUEST)
r 1.128753197 _10_ RTR  --- 0 AODV 48 [0 ffffffff 14 800] ------- [20:255 -1:255 29 0] [0x2 2 1 [7 0] [29 4]] (REQUEST)
r 1.128753197 _26_ RTR  --- 0 AODV 48 [0 ffffffff 14 800] ------- [20:255 -1:255 29 0] [0x2 2 1 [7 0] [29 4]] (REQUEST)
r 1.128753197 _30_ RTR  --- 0 AODV 48 [0 ffffffff 14 800] ------- [20:255 -1:255 29 0] [0x2 2 1 [7 0] [29 4]] (REQUEST)
r 1.128753286 _23_ RTR  --- 0 AODV 48 [0 ffffffff 14 800] ------- [20:255 -1:255 29 0] [0x2 2 1 [7 0] [29 4]] (REQUEST)
r 1.128753290 _17_ RTR  --- 0 AODV 48 [0 ffffffff 14 800] ------- [20:255 -1:255 29 0] [0x2 2 1 [7 0] [29 4]] (REQUEST)
r 1.128753330 _4_ RTR  --- 0 AODV 48 [0 ffffffff 14 800] ------- [20:255 -1:255 29 0] [0x2 2 1 [7 0] [29 4]] (REQUEST)
r 1.128753330 _36_ RTR  --- 0 AODV 48 [0 ffffffff 14 800] ------- [20:255 -1:255 29 0] [0x2 2 1 [7 0] [29 4]] (REQUEST)
r 1.128753361 _5_ RTR  --- 0 AODV 48 [0 ffffffff 14 800] ------- [20:255 -1:255 29 0] [0x2 2 1 [7 0] [29 4]] (REQUEST)
r 1.128753361 _37_ RTR  --- 0 AODV 48 [0 ffffffff 14 800] ------- [20:255 -1:255 29 0] [0x2 2 1 [7 0] [29 4]] (REQUEST)
r 1.128753362 _3_ RTR  --- 0 AODV 48 [0 ffffffff 14 800] ------- [20:255 -1:255 29 0] [0x2 2 1 [7 0] [29 4]] (REQUEST)
r 1.128753362 _35_ RTR  --- 0 AODV 48 [0 ffffffff 14 800] ------- [20:255 -1:255 29 0] [0x2 2 1 [7 0] [29 4]] (REQUEST)
r 1.128753370 _15_ RTR  --- 0 AODV 48 [0 ffffffff 14 800] ------- [20:255 -1:255 29 0] [0x2 2 1 [7 0] [29 4]] (REQUEST)
r 1.128753370 _31_ RTR  --- 0 AODV 48 [0 ffffffff 14 800] ------- [20:255 -1:255 29 0] [0x2 2 1 [7 0] [29 4]] (REQUEST)
r 1.128753373 _9_ RTR  --- 0 AODV 48 [0 ffffffff 14 800] ------- [20:255 -1:255 29 0] [0x2 2 1 [7 0] [29 4]] (REQUEST)
r 1.128753373 _25_ RTR  --- 0 AODV 48 [0 ffffffff 14 800] ------- [20:255 -1:255 29 0] [0x2 2 1 [7 0] [29 4]] (REQUEST)
r 1.128753449 _6_ RTR  --- 0 AODV 48 [0 ffffffff 14 800] ------- [20:255 -1:255 29 0] [0x2 2 1 [7 0] [29 4]] (REQUEST)
r 1.128753449 _2_ RTR  --- 0 AODV 48 [0 ffffffff 14 800] ------- [20:255 -1:255 29 0] [0x2 2 1 [7 0] [29 4]] (REQUEST)
r 1.128753449 _34_ RTR  --- 0 AODV 48 [0 ffffffff 14 800] ------- [20:255 -1:255 29 0] [0x2 2 1 [7 0] [29 4]] (REQUEST)
r 1.128753449 _38_ RTR  --- 0 AODV 48 [0 ffffffff 14 800] ------- [20:255 -1:255 29 0] [0x2 2 1 [7 0] [29 4]] (REQUEST)
r 1.128753496 _16_ RTR  --- 0 AODV 48 [0 ffffffff 14 800] ------- [20:255 -1:255 29 0] [0x2 2 1 [7 0] [29 4]] (REQUEST)
s 1.129884862 _33_ RTR  --- 0 AODV 48 [0 ffffffff 25 800] ------- [33:255 -1:255 28 0] [0x2 3 1 [7 0] [29 4]] (REQUEST)
r 1.131039520 _4_ RTR  --- 0 AODV 48 [0 ffffffff 5 800] ------- [5:255 -1:255 28 0] [0x2 3 1 [7 0] [29 4]] (REQUEST)
r 1.131039730 _3_ RTR  --- 0 AODV 48 [0 ffffffff 5 800] ------- [5:255 -1:255 28 0] [0x2 3 1 [7 0] [29 4]] (REQUEST)
r 1.131097013 _31_ RTR  --- 0 AODV 48 [0 ffffffff 17 800] ------- [23:255 -1:255 29 0] [0x2 2 1 [7 0] [29 4]] (REQUEST)
s 1.132491555 _10_ RTR  --- 0 AODV 48 [0 ffffffff 14 800] ------- [10:255 -1:255 28 0] [0x2 3 1 [7 0] [29 4]] (REQUEST)
s 1.133032244 _4_ RTR  --- 0 AODV 48 [0 ffffffff 14 800] ------- [4:255 -1:255 28 0] [0x2 3 1 [7 0] [29 4]] (REQUEST)
s 1.133366257 _16_ RTR  --- 0 AODV 48 [0 ffffffff 14 800] ------- [16:255 -1:255 28 0] [0x2 3 1 [7 0] [29 4]] (REQUEST)
r 1.133879315 _10_ RTR  --- 0 AODV 48 [0 ffffffff b 800] ------- [11:255 -1:255 29 0] [0x2 2 1 [7 0] [29 4]] (REQUEST)
r 1.133879501 _2_ RTR  --- 0 AODV 48 [0 ffffffff b 800] ------- [11:255 -1:255 29 0] [0x2 2 1 [7 0] [29 4]] (REQUEST)
r 1.133879501 _18_ RTR  --- 0 AODV 48 [0 ffffffff b 800] ------- [11:255 -1:255 29 0] [0x2 2 1 [7 0] [29 4]] (REQUEST)
r 1.133879525 _9_ RTR  --- 0 AODV 48 [0 ffffffff b 800] ------- [11:255 -1:255 29 0] [0x2 2 1 [7 0] [29 4]] (REQUEST)
r 1.133959624 _14_ RTR  --- 0 AODV 48 [0 ffffffff d 800] ------- [13:255 -1:255 29 0] [0x2 2 1 [7 0] [29 4]] (REQUEST)
r 1.133959808 _6_ RTR  --- 0 AODV 48 [0 ffffffff d 800] ------- [13:255 -1:255 29 0] [0x2 2 1 [7 0] [29 4]] (REQUEST)
r 1.133959808 _22_ RTR  --- 0 AODV 48 [0 ffffffff d 800] ------- [13:255 -1:255 29 0] [0x2 2 1 [7 0] [29 4]] (REQUEST)
r 1.133959830 _15_ RTR  --- 0 AODV 48 [0 ffffffff d 800] ------- [13:255 -1:255 29 0] [0x2 2 1 [7 0] [29 4]] (REQUEST)
s 1.134189161 _3_ RTR  --- 0 AODV 48 [0 ffffffff 14 800] ------- [3:255 -1:255 28 0] [0x2 3 1 [7 0] [29 4]] (REQUEST)
s 1.135764525 _2_ RTR  --- 0 AODV 48 [0 ffffffff 14 800] ------- [2:255 -1:255 28 0] [0x2 3 1 [7 0] [29 4]] (REQUEST)
r 1.136314451 _5_ RTR  --- 0 AODV 48 [0 ffffffff 4 800] ------- [4:255 -1:255 28 0] [0x2 3 1 [7 0] [29 4]] (REQUEST)
r 1.136314454 _3_ RTR  --- 0 AODV 48 [0 ffffffff 4 800] ------- [4:255 -1:255 28 0] [0x2 3 1 [7 0] [29 4]] (REQUEST)
r 1.136314577 _12_ RTR  --- 0 AODV 48 [0 ffffffff 4 800] ------- [4:255 -1:255 28 0] [0x2 3 1 [7 0] [29 4]] (REQUEST)
r 1.136314636 _13_ RTR  --- 0 AODV 48 [0 ffffffff 4 800] ------- [4:255 -1:255 28 0] [0x2 3 1 [7 0] [29 4]] (REQUEST)
r 1.136314638 _11_ RTR  --- 0 AODV 48 [0 ffffffff 4 800] ------- [4:255 -1:255 28 0] [0x2 3 1 [7 0] [29 4]] (REQUEST)
r 1.136314661 _2_ RTR  --- 0 AODV 48 [0 ffffffff 4 800] ------- [4:255 -1:255 28 0] [0x2 3 1 [7 0] [29 4]] (REQUEST)
r 1.136314661 _6_ RTR  --- 0 AODV 48 [0 ffffffff 4 800] ------- [4:255 -1:255 28 0] [0x2 3 1 [7 0] [29 4]] (REQUEST)
r 1.136314777 _10_ RTR  --- 0 AODV 48 [0 ffffffff 4 800] ------- [4:255 -1:255 28 0] [0x2 3 1 [7 0] [29 4]] (REQUEST)
r 1.136314777 _14_ RTR  --- 0 AODV 48 [0 ffffffff 4 800] ------- [4:255 -1:255 28 0] [0x2 3 1 [7 0] [29 4]] (REQUEST)
r 1.136314867 _7_ RTR  --- 0 AODV 48 [0 ffffffff 4 800] ------- [4:255 -1:255 28 0] [0x2 3 1 [7 0] [29 4]] (REQUEST)
r 1.136314871 _1_ RTR  --- 0 AODV 48 [0 ffffffff 4 800] ------- [4:255 -1:255 28 0] [0x2 3 1 [7 0] [29 4]] (REQUEST)
r 1.136314911 _20_ RTR  --- 0 AODV 48 [0 ffffffff 4 800] ------- [4:255 -1:255 28 0] [0x2 3 1 [7 0] [29 4]] (REQUEST)
r 1.136314942 _21_ RTR  --- 0 AODV 48 [0 ffffffff 4 800] ------- [4:255 -1:255 28 0] [0x2 3 1 [7 0] [29 4]] (REQUEST)
r 1.136314943 _19_ RTR  --- 0 AODV 48 [0 ffffffff 4 800] ------- [4:255 -1:255 28 0] [0x2 3 1 [7 0] [29 4]] (REQUEST)
r 1.136314951 _15_ RTR  --- 0 AODV 48 [0 ffffffff 4 800] ------- [4:255 -1:255 28 0] [0x2 3 1 [7 0] [29 4]] (REQUEST)
r 1.136314954 _9_ RTR  --- 0 AODV 48 [0 ffffffff 4 800] ------- [4:255 -1:255 28 0] [0x2 3 1 [7 0] [29 4]] (REQUEST)
r 1.136315030 _18_ RTR  --- 0 AODV 48 [0 ffffffff 4 800] ------- [4:255 -1:255 28 0] [0x2 3 1 [7 0] [29 4]] (REQUEST)
r 1.136315030 _22_ RTR  --- 0 AODV 48 [0 ffffffff 4 800] ------- [4:255 -1:255 28 0] [0x2 3 1 [7 0] [29 4]] (REQUEST)
r 1.136315077 _0_ RTR  --- 0 AODV 48 [0 ffffffff 4 800] ------- [4:255 -1:255 28 0] [0x2 3 1 [7 0] [29 4]] (REQUEST)
s 1.136522707 _17_ RTR  --- 0 AODV 48 [0 ffffffff 14 800] ------- [17:255 -1:255 28 0] [0x2 3 1 [7 0] [29 4]] (REQUEST)
s 1.137166344 _9_ RTR  --- 0 AODV 48 [0 ffffffff 14 800] ------- [9:255 -1:255 28 0] [0x2 3 1 [7 0] [29 4]] (REQUEST)
r 1.139199367 _2_ RTR  --- 0 AODV 48 [0 ffffffff 3 800] ------- [3:255 -1:255 28 0] [0x2 3 1 [7 0] [29 4]] (REQUEST)
r 1.139199371 _4_ RTR  --- 0 AODV 48 [0 ffffffff 3 800] ------- [3:255 -1:255 28 0] [0x2 3 1 [7 0] [29 4]] (REQUEST)
r 1.139199494 _11_ RTR  --- 0 AODV 48 [0 ffffffff 3 800] ------- [3:255 -1:255 28 0] [0x2 3 1 [7 0] [29 4]] (REQUEST)
r 1.139199553 _10_ RTR  --- 0 AODV 48 [0 ffffffff 3 800] ------- [3:255 -1:255 28 0] [0x2 3 1 [7 0] [29 4]] (REQUEST)
r 1.139199555 _12_ RTR  --- 0 AODV 48 [0 ffffffff 3 800] ------- [3:255 -1:255 28 0] [0x2 3 1 [7 0] [29 4]] (REQUEST)
r 1.139199577 _1_ RTR  --- 0 AODV 48 [0 ffffffff 3 800] ------- [3:255 -1:255 28 0] [0x2 3 1 [7 0] [29 4]] (REQUEST)
r 1.139199577 _5_ RTR  --- 0 AODV 48 [0 ffffffff 3 800] ------- [3:255 -1:255 28 0] [0x2 3 1 [7 0] [29 4]] (REQUEST)
r 1.139199694 _9_ RTR  --- 0 AODV 48 [0 ffffffff 3 800] ------- [3:255 -1:255 28 0] [0x2 3 1 [7 0] [29 4]] (REQUEST)
r 1.139199694 _13_ RTR  --- 0 AODV 48 [0 ffffffff 3 800] ------- [3:255 -1:255 28 0] [0x2 3 1 [7 0] [29 4]] (REQUEST)
r 1.139199784 _0_ RTR  --- 0 AODV 48 [0 ffffffff 3 800] ------- [3:255 -1:255 28 0] [0x2 3 1 [7 0] [29 4]] (REQUEST)
r 1.139199787 _6_ RTR  --- 0 AODV 48 [0 ffffffff 3 800] ------- [3:255 -1:255 28 0] [0x2 3 1 [7 0] [29 4]] (REQUEST)
r 1.139199827 _19_ RTR  --- 0 AODV 48 [0 ffffffff 3 800] ------- [3:255 -1:255 28 0] [0x2 3 1 [7 0] [29 4]] (REQUEST)
r 1.139199859 _18_ RTR  --- 0 AODV 48 [0 ffffffff 3 800] ------- [3:255 -1:255 28 0] [0x2 3 1 [7 0] [29 4]] (REQUEST)
r 1.139199860 _20_ RTR  --- 0 AODV 48 [0 ffffffff 3 800] ------- [3:255 -1:255 28 0] [0x2 3 1 [7 0] [29 4]] (REQUEST)
r 1.139199868 _8_ RTR  --- 0 AODV 48 [0 ffffffff 3 800] ------- [3:255 -1:255 28 0] [0x2 3 1 [7 0] [29 4]] (REQUEST)
r 1.139199870 _14_ RTR  --- 0 AODV 48 [0 ffffffff 3 800] ------- [3:255 -1:255 28 0] [0x2 3 1 [7 0] [29 4]] (REQUEST)
r 1.139199947 _17_ RTR  --- 0 AODV 48 [0 ffffffff 3 800] ------- [3:255 -1:255 28 0] [0x2 3 1 [7 0] [29 4]] (REQUEST)
r 1.139199947 _21_ RTR  --- 0 AODV 48 [0 ffffffff 3 800] ------- [3:255 -1:255 28 0] [0x2 3 1 [7 0] [29 4]] (REQUEST)
r 1.139199994 _7_ RTR  --- 0 AODV 48 [0 ffffffff 3 800] ------- [3:255 -1:255 28 0] [0x2 3 1 [7 0] [29 4]] (REQUEST)
s 1.140015726 _8_ RTR  --- 0 AODV 48 [0 ffffffff 3 800] ------- [8:255 -1:255 27 0] [0x2 4 1 [7 0] [29 4]] (REQUEST)
s 1.140777758 _1_ RTR  --- 0 AODV 48 [0 ffffffff 4 800] ------- [1:255 -1:255 27 0] [0x2 4 1 [7 0] [29 4]] (REQUEST)
r 1.141576464 _17_ RTR  --- 0 AODV 48 [0 ffffffff 10 800] ------- [16:255 -1:255 28 0] [0x2 3 1 [7 0] [29 4]] (REQUEST)
r 1.141576591 _8_ RTR  --- 0 AODV 48 [0 ffffffff 10 800] ------- [16:255 -1:255 28 0] [0x2 3 1 [7 0] [29 4]] (REQUEST)
r 1.141576591 _24_ RTR  --- 0 AODV 48 [0 ffffffff 10 800] ------- [16:255 -1:255 28 0] [0x2 3 1 [7 0] [29 4]] (REQUEST)
r 1.141576649 _25_ RTR  --- 0 AODV 48 [0 ffffffff 10 800] ------- [16:255 -1:255 28 0] [0x2 3 1 [7 0] [29 4]] (REQUEST)
r 1.141576924 _32_ RTR  --- 0 AODV 48 [0 ffffffff 10 800] ------- [16:255 -1:255 28 0] [0x2 3 1 [7 0] [29 4]] (REQUEST)
r 1.141700418 _13_ RTR  --- 0 AODV 48 [0 ffffffff c 800] ------- [12:255 -1:255 29 0] [0x2 2 1 [7 0] [29 4]] (REQUEST)
r 1.141700421 _11_ RTR  --- 0 AODV 48 [0 ffffffff c 800] ------- [12:255 -1:255 29 0] [0x2 2 1 [7 0] [29 4]] (REQUEST)
r 1.141700545 _4_ RTR  --- 0 AODV 48 [0 ffffffff c 800] ------- [12:255 -1:255 29 0] [0x2 2 1 [7 0] [29 4]] (REQUEST)
r 1.141700545 _20_ RTR  --- 0 AODV 48 [0 ffffffff c 800] ------- [12:255 -1:255 29 0] [0x2 2 1 [7 0] [29 4]] (REQUEST)
r 1.141700603 _5_ RTR  --- 0 AODV 48 [0 ffffffff c 800] ------- [12:255 -1:255 29 0] [0x2 2 1 [7 0] [29 4]] (REQUEST)
r 1.141700603 _21_ RTR  --- 0 AODV 48 [0 ffffffff c 800] ------- [12:255 -1:255 29 0] [0x2 2 1 [7 0] [29 4]] (REQUEST)
r 1.141700605 _3_ RTR  --- 0 AODV 48 [0 ffffffff c 800] ------- [12:255 -1:255 29 0] [0x2 2 1 [7 0] [29 4]] (REQUEST)
r 1.141700628 _14_ RTR  --- 0 AODV 48 [0 ffffffff c 800] ------- [12:255 -1:255 29 0] [0x2 2 1 [7 0] [29 4]] (REQUEST)
r 1.141700745 _6_ RTR  --- 0 AODV 48 [0 ffffffff c 800] ------- [12:255 -1:255 29 0] [0x2 2 1 [7 0] [29 4]] (REQUEST)
r 1.141700745 _22_ RTR  --- 0 AODV 48 [0 ffffffff c 800] ------- [12:255 -1:255 29 0] [0x2 2 1 [7 0] [29 4]] (REQUEST)
r 1.141700835 _15_ RTR  --- 0 AODV 48 [0 ffffffff c 800] ------- [12:255 -1:255 29 0] [0x2 2 1 [7 0] [29 4]] (REQUEST)
r 1.141700918 _7_ RTR  --- 0 AODV 48 [0 ffffffff c 800] ------- [12:255 -1:255 29 0] [0x2 2 1 [7 0] [29 4]] (REQUEST)
r 1.141700918 _23_ RTR  --- 0 AODV 48 [0 ffffffff c 800] ------- [12:255 -1:255 29 0] [0x2 2 1 [7 0] [29 4]] (REQUEST)
s 1.142192765 _0_ RTR  --- 0 AODV 48 [0 ffffffff 4 800] ------- [0:255 -1:255 27 0] [0x2 4 1 [7 0] [29 4]] (REQUEST)
r 1.143937933 _9_ RTR  --- 0 AODV 48 [0 ffffffff 8 800] ------- [8:255 -1:255 27 0] [0x2 4 1 [7 0] [29 4]] (REQUEST)
r 1.143938060 _0_ RTR  --- 0 AODV 48 [0 ffffffff 8 800] ------- [8:255 -1:255 27 0] [0x2 4 1 [7 0] [29 4]] (REQUEST)
r 1.143938060 _16_ RTR  --- 0 AODV 48 [0 ffffffff 8 800] ------- [8:255 -1:255 27 0] [0x2 4 1 [7 0] [29 4]] (REQUEST)
r 1.143938119 _1_ RTR  --- 0 AODV 48 [0 ffffffff 8 800] ------- [8:255 -1:255 27 0] [0x2 4 1 [7 0] [29 4]] (REQUEST)
r 1.143938119 _17_ RTR  --- 0 AODV 48 [0 ffffffff 8 800] ------- [8:255 -1:255 27 0] [0x2 4 1 [7 0] [29 4]] (REQUEST)