s 1.106011134 _28_ AGT  --- 0 tcp 40 [0 0 0 0] ------- [28:4 11:2 32 0] [0 0] 0 0
r 1.106011134 _28_ RTR  --- 0 tcp 40 [0 0 0 0] ------- [28:4 11:2 32 0] [0 0] 0 0
s 1.106011134 _28_ RTR  --- 0 AODV 48 [0 0 0 0] ------- [28:255 -1:255 30 0] [0x2 1 1 [11 0] [28 4]] (REQUEST)
r 1.109933654 _23_ RTR  --- 0 AODV 48 [0 ffffffff 1c 800] ------- [28:255 -1:255 30 0] [0x2 1 1 [11 0] [28 4]] (REQUEST)
r 1.109933654 _33_ RTR  --- 0 AODV 48 [0 ffffffff 1c 800] ------- [28:255 -1:255 30 0] [0x2 1 1 [11 0] [28 4]] (REQUEST)
r 1.109933967 _27_ RTR  --- 0 AODV 48 [0 ffffffff 1c 800] ------- [28:255 -1:255 30 0] [0x2 1 1 [11 0] [28 4]] (REQUEST)
r 1.109933967 _29_ RTR  --- 0 AODV 48 [0 ffffffff 1c 800] ------- [28:255 -1:255 30 0] [0x2 1 1 [11 0] [28 4]] (REQUEST)
s 1.114781394 _23_ RTR  --- 0 AODV 48 [0 ffffffff 1c 800] ------- [23:255 -1:255 29 0] [0x2 2 1 [11 0] [28 4]] (REQUEST)
s 1.116162866 _27_ RTR  --- 0 AODV 48 [0 ffffffff 1c 800] ------- [27:255 -1:255 29 0] [0x2 2 1 [11 0] [28 4]] (REQUEST)
s 1.118441795 _29_ RTR  --- 0 AODV 48 [0 ffffffff 1c 800] ------- [29:255 -1:255 29 0] [0x2 2 1 [11 0] [28 4]] (REQUEST)
s 1.118901662 _33_ RTR  --- 0 AODV 48 [0 ffffffff 1c 800] ------- [33:255 -1:255 29 0] [0x2 2 1 [11 0] [28 4]] (REQUEST)
r 1.119983914 _28_ RTR  --- 0 AODV 48 [0 ffffffff 17 800] ------- [23:255 -1:255 29 0] [0x2 2 1 [11 0] [28 4]] (REQUEST)
r 1.119983918 _18_ RTR  --- 0 AODV 48 [0 ffffffff 17 800] ------- [23:255 -1:255 29 0] [0x2 2 1 [11 0] [28 4]] (REQUEST)
r 1.119984228 _22_ RTR  --- 0 AODV 48 [0 ffffffff 17 800] ------- [23:255 -1:255 29 0] [0x2 2 1 [11 0] [28 4]] (REQUEST)
r 1.119984228 _24_ RTR  --- 0 AODV 48 [0 ffffffff 17 800] ------- [23:255 -1:255 29 0] [0x2 2 1 [11 0] [28 4]] (REQUEST)
s 1.122252535 _24_ RTR  --- 0 AODV 48 [0 ffffffff 17 800] ------- [24:255 -1:255 28 0] [0x2 3 1 [11 0] [28 4]] (REQUEST)
r 1.122824182 _28_ RTR  --- 0 AODV 48 [0 ffffffff 21 800] ------- [33:255 -1:255 29 0] [0x2 2 1 [11 0] [28 4]] (REQUEST)
r 1.122824182 _38_ RTR  --- 0 AODV 48 [0 ffffffff 21 800] ------- [33:255 -1:255 29 0] [0x2 2 1 [11 0] [28 4]] (REQUEST)
r 1.122824496 _32_ RTR  --- 0 AODV 48 [0 ffffffff 21 800] ------- [33:255 -1:255 29 0] [0x2 2 1 [11 0] [28 4]] (REQUEST)
r 1.122824496 _34_ RTR  --- 0 AODV 48 [0 ffffffff 21 800] ------- [33:255 -1:255 29 0] [0x2 2 1 [11 0] [28 4]] (REQUEST)
s 1.125768930 _18_ RTR  --- 0 AODV 48 [0 ffffffff 17 800] ------- [18:255 -1:255 28 0] [0x2 3 1 [11 0] [28 4]] (REQUEST)
s 1.126405439 _20_ AGT  --- 1 tcp 40 [0 0 0 0] ------- [20:0 32:0 32 0] [0 0] 0 0
r 1.126405439 _20_ RTR  --- 1 tcp 40 [0 0 0 0] ------- [20:0 32:0 32 0] [0 0] 0 0
s 1.126405439 _20_ RTR  --- 0 AODV 48 [0 0 0 0] ------- [20:255 -1:255 30 0] [0x2 1 1 [32 0] [20 4]] (REQUEST)
r 1.126815055 _29_ RTR  --- 0 AODV 48 [0 ffffffff 18 800] ------- [24:255 -1:255 28 0] [0x2 3 1 [11 0] [28 4]] (REQUEST)
r 1.126815058 _19_ RTR  --- 0 AODV 48 [0 ffffffff 18 800] ------- [24:255 -1:255 28 0] [0x2 3 1 [11 0] [28 4]] (REQUEST)
r 1.126815368 _23_ RTR  --- 0 AODV 48 [0 ffffffff 18 800] ------- [24:255 -1:255 28 0] [0x2 3 1 [11 0] [28 4]] (REQUEST)
s 1.127046310 _22_ RTR  --- 0 AODV 48 [0 ffffffff 17 800] ------- [22:255 -1:255 28 0] [0x2 3 1 [11 0] [28 4]] (REQUEST)
s 1.127158598 _34_ RTR  --- 0 AODV 48 [0 ffffffff 21 800] ------- [34:255 -1:255 28 0] [0x2 3 1 [11 0] [28 4]] (REQUEST)
s 1.127838335 _10_ AGT  --- 2 tcp 40 [0 0 0 0] ------- [10:0 22:0 32 0] [0 0] 0 0
r 1.127838335 _10_ RTR  --- 2 tcp 40 [0 0 0 0] ------- [10:0 22:0 32 0] [0 0] 0 0
s 1.127838335 _10_ RTR  --- 0 AODV 48 [0 0 0 0] ------- [10:255 -1:255 30 0] [0x2 1 1 [22 0] [10 4]] (REQUEST)
r 1.129051450 _13_ RTR  --- 0 AODV 48 [0 ffffffff 12 800] ------- [18:255 -1:255 28 0] [0x2 3 1 [11 0] [28 4]] (REQUEST)
r 1.129051453 _23_ RTR  --- 0 AODV 48 [0 ffffffff 12 800] ------- [18:255 -1:255 28 0] [0x2 3 1 [11 0] [28 4]] (REQUEST)
r 1.129051763 _17_ RTR  --- 0 AODV 48 [0 ffffffff 12 800] ------- [18:255 -1:255 28 0] [0x2 3 1 [11 0] [28 4]] (REQUEST)
r 1.129051763 _19_ RTR  --- 0 AODV 48 [0 ffffffff 12 800] ------- [18:255 -1:255 28 0] [0x2 3 1 [11 0] [28 4]] (REQUEST)
s 1.129195290 _32_ RTR  --- 0 AODV 48 [0 ffffffff 21 800] ------- [32:255 -1:255 28 0] [0x2 3 1 [11 0] [28 4]] (REQUEST)
s 1.129716614 _17_ RTR  --- 0 AODV 48 [0 ffffffff 12 800] ------- [17:255 -1:255 27 0] [0x2 4 1 [11 0] [28 4]] (REQUEST)
r 1.130647959 _25_ RTR  --- 0 AODV 48 [0 ffffffff 14 800] ------- [20:255 -1:255 30 0] [0x2 1 1 [32 0] [20 4]] (REQUEST)
r 1.130647963 _15_ RTR  --- 0 AODV 48 [0 ffffffff 14 800] ------- [20:255 -1:255 30 0] [0x2 1 1 [32 0] [20 4]] (REQUEST)
r 1.130648273 _21_ RTR  --- 0 AODV 48 [0 ffffffff 14 800] ------- [20:255 -1:255 30 0] [0x2 1 1 [32 0] [20 4]] (REQUEST)
s 1.130764562 _38_ RTR  --- 0 AODV 48 [0 ffffffff 21 800] ------- [38:255 -1:255 28 0] [0x2 3 1 [11 0] [28 4]] (REQUEST)
s 1.131414796 _19_ RTR  --- 0 AODV 48 [0 ffffffff 18 800] ------- [19:255 -1:255 27 0] [0x2 4 1 [11 0] [28 4]] (REQUEST)
r 1.131721118 _29_ RTR  --- 0 AODV 48 [0 ffffffff 22 800] ------- [34:255 -1:255 28 0] [0x2 3 1 [11 0] [28 4]] (REQUEST)
r 1.131721118 _39_ RTR  --- 0 AODV 48 [0 ffffffff 22 800] ------- [34:255 -1:255 28 0] [0x2 3 1 [11 0] [28 4]] (REQUEST)
r 1.131721432 _33_ RTR  --- 0 AODV 48 [0 ffffffff 22 800] ------- [34:255 -1:255 28 0] [0x2 3 1 [11 0] [28 4]] (REQUEST)
s 1.132706787 _15_ RTR  --- 0 AODV 48 [0 ffffffff 14 800] ------- [15:255 -1:255 29 0] [0x2 2 1 [32 0] [20 4]] (REQUEST)
r 1.133639134 _12_ RTR  --- 0 AODV 48 [0 ffffffff 11 800] ------- [17:255 -1:255 27 0] [0x2 4 1 [11 0] [28 4]] (REQUEST)
r 1.133639137 _22_ RTR  --- 0 AODV 48 [0 ffffffff 11 800] ------- [17:255 -1:255 27 0] [0x2 4 1 [11 0] [28 4]] (REQUEST)
r 1.133639447 _18_ RTR  --- 0 AODV 48 [0 ffffffff 11 800] ------- [17:255 -1:255 27 0] [0x2 4 1 [11 0] [28 4]] (REQUEST)
r 1.133808855 _5_ RTR  --- 0 AODV 48 [0 ffffffff a 800] ------- [10:255 -1:255 30 0] [0x2 1 1 [22 0] [10 4]] (REQUEST)
r 1.133808855 _15_ RTR  --- 0 AODV 48 [0 ffffffff a 800] ------- [10:255 -1:255 30 0] [0x2 1 1 [22 0] [10 4]] (REQUEST)
s 1.134368602 _39_ RTR  --- 0 AODV 48 [0 ffffffff 22 800] ------- [39:255 -1:255 27 0] [0x2 4 1 [11 0] [28 4]] (REQUEST)
s 1.134404976 _13_ RTR  --- 0 AODV 48 [0 ffffffff 12 800] ------- [13:255 -1:255 27 0] [0x2 4 1 [11 0] [28 4]] (REQUEST)
r 1.135647082 _33_ RTR  --- 0 AODV 48 [0 ffffffff 26 800] ------- [38:255 -1:255 28 0] [0x2 3 1 [11 0] [28 4]] (REQUEST)
r 1.135647395 _37_ RTR  --- 0 AODV 48 [0 ffffffff 26 800] ------- [38:255 -1:255 28 0] [0x2 3 1 [11 0] [28 4]] (REQUEST)
r 1.135647395 _39_ RTR  --- 0 AODV 48 [0 ffffffff 26 800] ------- [38:255 -1:255 28 0] [0x2 3 1 [11 0] [28 4]] (REQUEST)
r 1.135896830 _27_ RTR  --- 0 AODV 48 [0 ffffffff 16 800] ------- [22:255 -1:255 28 0] [0x2 3 1 [11 0] [28 4]] (REQUEST)
r 1.135896833 _17_ RTR  --- 0 AODV 48 [0 ffffffff 16 800] ------- [22:255 -1:255 28 0] [0x2 3 1 [11 0] [28 4]] (REQUEST)
r 1.135897143 _21_ RTR  --- 0 AODV 48 [0 ffffffff 16 800] ------- [22:255 -1:255 28 0] [0x2 3 1 [11 0] [28 4]] (REQUEST)
r 1.135897143 _23_ RTR  --- 0 AODV 48 [0 ffffffff 16 800] ------- [22:255 -1:255 28 0] [0x2 3 1 [11 0] [28 4]] (REQUEST)
s 1.136436304 _21_ RTR  --- 0 AODV 48 [0 ffffffff 16 800] ------- [21:255 -1:255 27 0] [0x2 4 1 [11 0] [28 4]] (REQUEST)
s 1.136613140 _15_ RTR  --- 0 AODV 48 [0 ffffffff a 800] ------- [15:255 -1:255 29 0] [0x2 2 1 [22 0] [10 4]] (REQUEST)
s 1.136841553 _37_ RTR  --- 0 AODV 48 [0 ffffffff 26 800] ------- [37:255 -1:255 27 0] [0x2 4 1 [11 0] [28 4]] (REQUEST)
s 1.137402048 _21_ RTR  --- 0 AODV 48 [0 ffffffff 14 800] ------- [21:255 -1:255 29 0] [0x2 2 1 [32 0] [20 4]] (REQUEST)
s 1.138144891 _25_ RTR  --- 0 AODV 48 [0 ffffffff 14 800] ------- [25:255 -1:255 29 0] [0x2 2 1 [32 0] [20 4]] (REQUEST)
r 1.138365810 _27_ RTR  --- 0 AODV 48 [0 ffffffff 20 800] ------- [32:255 -1:255 28 0] [0x2 3 1 [11 0] [28 4]] (REQUEST)
r 1.138365810 _37_ RTR  --- 0 AODV 48 [0 ffffffff 20 800] ------- [32:255 -1:255 28 0] [0x2 3 1 [11 0] [28 4]] (REQUEST)
r 1.138366123 _31_ RTR  --- 0 AODV 48 [0 ffffffff 20 800] ------- [32:255 -1:255 28 0] [0x2 3 1 [11 0] [28 4]] (REQUEST)
r 1.138366123 _33_ RTR  --- 0 AODV 48 [0 ffffffff 20 800] ------- [32:255 -1:255 28 0] [0x2 3 1 [11 0] [28 4]] (REQUEST)
r 1.138967496 _8_ RTR  --- 0 AODV 48 [0 ffffffff d 800] ------- [13:255 -1:255 27 0] [0x2 4 1 [11 0] [28 4]] (REQUEST)
r 1.138967496 _18_ RTR  --- 0 AODV 48 [0 ffffffff d 800] ------- [13:255 -1:255 27 0] [0x2 4 1 [11 0] [28 4]] (REQUEST)
r 1.138967810 _12_ RTR  --- 0 AODV 48 [0 ffffffff d 800] ------- [13:255 -1:255 27 0] [0x2 4 1 [11 0] [28 4]] (REQUEST)
r 1.138967810 _14_ RTR  --- 0 AODV 48 [0 ffffffff d 800] ------- [13:255 -1:255 27 0] [0x2 4 1 [11 0] [28 4]] (REQUEST)
r 1.139317307 _10_ RTR  --- 0 AODV 48 [0 ffffffff f 800] ------- [15:255 -1:255 29 0] [0x2 2 1 [32 0] [20 4]] (REQUEST)
r 1.139317311 _20_ RTR  --- 0 AODV 48 [0 ffffffff f 800] ------- [15:255 -1:255 29 0] [0x2 2 1 [32 0] [20 4]] (REQUEST)
s 1.140193551 _12_ RTR  --- 0 AODV 48 [0 ffffffff 11 800] ------- [12:255 -1:255 26 0] [0x2 5 1 [11 0] [28 4]] (REQUEST)
s 1.140266225 _14_ RTR  --- 0 AODV 48 [0 ffffffff d 800] ------- [14:255 -1:255 26 0] [0x2 5 1 [11 0] [28 4]] (REQUEST)
r 1.141532073 _32_ RTR  --- 0 AODV 48 [0 ffffffff 25 800] ------- [37:255 -1:255 27 0] [0x2 4 1 [11 0] [28 4]] (REQUEST)
r 1.141532387 _38_ RTR  --- 0 AODV 48 [0 ffffffff 25 800] ------- [37:255 -1:255 27 0] [0x2 4 1 [11 0] [28 4]] (REQUEST)
s 1.142354409 _5_ RTR  --- 0 AODV 48 [0 ffffffff a 800] ------- [5:255 -1:255 29 0] [0x2 2 1 [22 0] [10 4]] (REQUEST)
r 1.143189307 _10_ RTR  --- 0 AODV 48 [0 ffffffff f 800] ------- [15:255 -1:255 29 0] [0x2 2 1 [22 0] [10 4]] (REQUEST)
r 1.143273316 _14_ RTR  --- 0 AODV 48 [0 ffffffff 13 800] ------- [19:255 -1:255 27 0] [0x2 4 1 [11 0] [28 4]] (REQUEST)
r 1.143273319 _24_ RTR  --- 0 AODV 48 [0 ffffffff 13 800] ------- [19:255 -1:255 27 0] [0x2 4 1 [11 0] [28 4]] (REQUEST)
r 1.143273629 _18_ RTR  --- 0 AODV 48 [0 ffffffff 13 800] ------- [19:255 -1:255 27 0] [0x2 4 1 [11 0] [28 4]] (REQUEST)
r 1.143347411 _30_ RTR  --- 0 AODV 48 [0 ffffffff 19 800] ------- [25:255 -1:255 29 0] [0x2 2 1 [32 0] [20 4]] (REQUEST)
s 1.143487601 _10_ RTR  --- 0 AODV 48 [0 ffffffff f 800] ------- [10:255 -1:255 28 0] [0x2 3 1 [32 0] [20 4]] (REQUEST)
s 1.144402219 _8_ RTR  --- 0 AODV 48 [0 ffffffff d 800] ------- [8:255 -1:255 26 0] [0x2 5 1 [11 0] [28 4]] (REQUEST)
s 1.146666577 _31_ RTR  --- 0 AODV 48 [0 ffffffff 20 800] ------- [31:255 -1:255 27 0] [0x2 4 1 [11 0] [28 4]] (REQUEST)
r 1.147556929 _0_ RTR  --- 0 AODV 48 [0 ffffffff 5 800] ------- [5:255 -1:255 29 0] [0x2 2 1 [22 0] [10 4]] (REQUEST)
r 1.147730121 _15_ RTR  --- 0 AODV 48 [0 ffffffff a 800] ------- [10:255 -1:255 28 0] [0x2 3 1 [32 0] [20 4]] (REQUEST)
s 1.148119879 _30_ RTR  --- 0 AODV 48 [0 ffffffff 19 800] ------- [30:255 -1:255 28 0] [0x2 3 1 [32 0] [20 4]] (REQUEST)
r 1.148156315 _24_ RTR  --- 0 AODV 48 [0 ffffffff 1d 800] ------- [29:255 -1:255 29 0] [0x2 2 1 [11 0] [28 4]] (REQUEST)
r 1.148156315 _34_ RTR  --- 0 AODV 48 [0 ffffffff 1d 800] ------- [29:255 -1:255 29 0] [0x2 2 1 [11 0] [28 4]] (REQUEST)
r 1.148156628 _28_ RTR  --- 0 AODV 48 [0 ffffffff 1d 800] ------- [29:255 -1:255 29 0] [0x2 2 1 [11 0] [28 4]] (REQUEST)
r 1.149284739 _3_ RTR  --- 0 AODV 48 [0 ffffffff 8 800] ------- [8:255 -1:255 26 0] [0x2 5 1 [11 0] [28 4]] (REQUEST)
r 1.149284739 _13_ RTR  --- 0 AODV 48 [0 ffffffff 8 800] ------- [8:255 -1:255 26 0] [0x2 5 1 [11 0] [28 4]] (REQUEST)
r 1.149285053 _9_ RTR  --- 0 AODV 48 [0 ffffffff 8 800] ------- [8:255 -1:255 26 0] [0x2 5 1 [11 0] [28 4]] (REQUEST)
s 1.150636416 _0_ RTR  --- 0 AODV 48 [0 ffffffff 5 800] ------- [0:255 -1:255 28 0] [0x2 3 1 [22 0] [10 4]] (REQUEST)
r 1.150835122 _34_ RTR  --- 0 AODV 48 [0 ffffffff 27 800] ------- [39:255 -1:255 27 0] [0x2 4 1 [11 0] [28 4]] (REQUEST)
r 1.150835436 _38_ RTR  --- 0 AODV 48 [0 ffffffff 27 800] ------- [39:255 -1:255 27 0] [0x2 4 1 [11 0] [28 4]] (REQUEST)
r 1.150909097 _26_ RTR  --- 0 AODV 48 [0 ffffffff 1f 800] ------- [31:255 -1:255 27 0] [0x2 4 1 [11 0] [28 4]] (REQUEST)
r 1.150909097 _36_ RTR  --- 0 AODV 48 [0 ffffffff 1f 800] ------- [31:255 -1:255 27 0] [0x2 4 1 [11 0] [28 4]] (REQUEST)
r 1.151082399 _25_ RTR  --- 0 AODV 48 [0 ffffffff 1e 800] ------- [30:255 -1:255 28 0] [0x2 3 1 [32 0] [20 4]] (REQUEST)
r 1.151082399 _35_ RTR  --- 0 AODV 48 [0 ffffffff 1e 800] ------- [30:255 -1:255 28 0] [0x2 3 1 [32 0] [20 4]] (REQUEST)
s 1.151480554 _35_ RTR  --- 0 AODV 48 [0 ffffffff 1e 800] ------- [35:255 -1:255 27 0] [0x2 4 1 [32 0] [20 4]] (REQUEST)
s 1.151922326 _3_ RTR  --- 0 AODV 48 [0 ffffffff 8 800] ------- [3:255 -1:255 25 0] [0x2 6 1 [11 0] [28 4]] (REQUEST)
r 1.153084745 _9_ RTR  --- 0 AODV 48 [0 ffffffff e 800] ------- [14:255 -1:255 26 0] [0x2 5 1 [11 0] [28 4]] (REQUEST)
r 1.153084745 _19_ RTR  --- 0 AODV 48 [0 ffffffff e 800] ------- [14:255 -1:255 26 0] [0x2 5 1 [11 0] [28 4]] (REQUEST)
r 1.153085058 _13_ RTR  --- 0 AODV 48 [0 ffffffff e 800] ------- [14:255 -1:255 26 0] [0x2 5 1 [11 0] [28 4]] (REQUEST)
r 1.153542824 _26_ RTR  --- 0 AODV 48 [0 ffffffff 15 800] ------- [21:255 -1:255 27 0] [0x2 4 1 [11 0] [28 4]] (REQUEST)
r 1.153542827 _16_ RTR  --- 0 AODV 48 [0 ffffffff 15 800] ------- [21:255 -1:255 27 0] [0x2 4 1 [11 0] [28 4]] (REQUEST)
r 1.153543137 _20_ RTR  --- 0 AODV 48 [0 ffffffff 15 800] ------- [21:255 -1:255 27 0] [0x2 4 1 [11 0] [28 4]] (REQUEST)
r 1.153543137 _22_ RTR  --- 0 AODV 48 [0 ffffffff 15 800] ------- [21:255 -1:255 27 0] [0x2 4 1 [11 0] [28 4]] (REQUEST)
s 1.153976453 _9_ RTR  --- 0 AODV 48 [0 ffffffff 8 800] ------- [9:255 -1:255 25 0] [0x2 6 1 [11 0] [28 4]] (REQUEST)
s 1.154441490 _26_ RTR  --- 0 AODV 48 [0 ffffffff 1f 800] ------- [26:255 -1:255 26 0] [0x2 5 1 [11 0] [28 4]] (REQUEST)
r 1.154878936 _5_ RTR  --- 0 AODV 48 [0 ffffffff 0 800] ------- [0:255 -1:255 28 0] [0x2 3 1 [22 0] [10 4]] (REQUEST)
r 1.154879249 _1_ RTR  --- 0 AODV 48 [0 ffffffff 0 800] ------- [0:255 -1:255 28 0] [0x2 3 1 [22 0] [10 4]] (REQUEST)
r 1.155652846 _8_ RTR  --- 0 AODV 48 [0 ffffffff 3 800] ------- [3:255 -1:255 25 0] [0x2 6 1 [11 0] [28 4]] (REQUEST)
r 1.155653159 _2_ RTR  --- 0 AODV 48 [0 ffffffff 3 800] ------- [3:255 -1:255 25 0] [0x2 6 1 [11 0] [28 4]] (REQUEST)
r 1.155653159 _4_ RTR  --- 0 AODV 48 [0 ffffffff 3 800] ------- [3:255 -1:255 25 0] [0x2 6 1 [11 0] [28 4]] (REQUEST)
s 1.155684702 _36_ RTR  --- 0 AODV 48 [0 ffffffff 1f 800] ------- [36:255 -1:255 26 0] [0x2 5 1 [11 0] [28 4]] (REQUEST)
s 1.156306925 _16_ RTR  --- 0 AODV 48 [0 ffffffff 15 800] ------- [16:255 -1:255 26 0] [0x2 5 1 [11 0] [28 4]] (REQUEST)
r 1.156811074 _30_ RTR  --- 0 AODV 48 [0 ffffffff 23 800] ------- [35:255 -1:255 27 0] [0x2 4 1 [32 0] [20 4]] (REQUEST)
r 1.156811387 _36_ RTR  --- 0 AODV 48 [0 ffffffff 23 800] ------- [35:255 -1:255 27 0] [0x2 4 1 [32 0] [20 4]] (REQUEST)
s 1.156957220 _4_ RTR  --- 0 AODV 48 [0 ffffffff 3 800] ------- [4:255 -1:255 24 0] [0x2 7 1 [11 0] [28 4]] (REQUEST)
s 1.157095871 _20_ RTR  --- 0 AODV 48 [0 ffffffff 15 800] ------- [20:255 -1:255 26 0] [0x2 5 1 [11 0] [28 4]] (REQUEST)
r 1.159178973 _4_ RTR  --- 0 AODV 48 [0 ffffffff 9 800] ------- [9:255 -1:255 25 0] [0x2 6 1 [11 0] [28 4]] (REQUEST)
r 1.159178973 _14_ RTR  --- 0 AODV 48 [0 ffffffff 9 800] ------- [9:255 -1:255 25 0] [0x2 6 1 [11 0] [28 4]] (REQUEST)
r 1.159179287 _8_ RTR  --- 0 AODV 48 [0 ffffffff 9 800] ------- [9:255 -1:255 25 0] [0x2 6 1 [11 0] [28 4]] (REQUEST)
r 1.159607222 _31_ RTR  --- 0 AODV 48 [0 ffffffff 24 800] ------- [36:255 -1:255 26 0] [0x2 5 1 [11 0] [28 4]] (REQUEST)
r 1.159607535 _35_ RTR  --- 0 AODV 48 [0 ffffffff 24 800] ------- [36:255 -1:255 26 0] [0x2 5 1 [11 0] [28 4]] (REQUEST)
r 1.159607535 _37_ RTR  --- 0 AODV 48 [0 ffffffff 24 800] ------- [36:255 -1:255 26 0] [0x2 5 1 [11 0] [28 4]] (REQUEST)
s 1.159865278 _36_ RTR  --- 0 AODV 48 [0 ffffffff 23 800] ------- [36:255 -1:255 26 0] [0x2 5 1 [32 0] [20 4]] (REQUEST)
s 1.161354417 _1_ RTR  --- 0 AODV 48 [0 ffffffff 0 800] ------- [1:255 -1:255 27 0] [0x2 4 1 [22 0] [10 4]] (REQUEST)
r 1.161509445 _11_ RTR  --- 0 AODV 48 [0 ffffffff 10 800] ------- [16:255 -1:255 26 0] [0x2 5 1 [11 0] [28 4]] (REQUEST)
s 1.161509445 _11_ RTR  --- 0 AODV 44 [0 0 0 0] ------- [11:255 28:255 30 16] [0x4 1 [11 4] 10.000000] (REPLY)
r 1.161509449 _21_ RTR  --- 0 AODV 48 [0 ffffffff 10 800] ------- [16:255 -1:255 26 0] [0x2 5 1 [11 0] [28 4]] (REQUEST)
r 1.161509759 _15_ RTR  --- 0 AODV 48 [0 ffffffff 10 800] ------- [16:255 -1:255 26 0] [0x2 5 1 [11 0] [28 4]] (REQUEST)
r 1.161509759 _17_ RTR  --- 0 AODV 48 [0 ffffffff 10 800] ------- [16:255 -1:255 26 0] [0x2 5 1 [11 0] [28 4]] (REQUEST)
s 1.161969515 _2_ RTR  --- 0 AODV 48 [0 ffffffff 3 800] ------- [2:255 -1:255 24 0] [0x2 7 1 [11 0] [28 4]] (REQUEST)
r 1.163147798 _31_ RTR  --- 0 AODV 48 [0 ffffffff 24 800] ------- [36:255 -1:255 26 0] [0x2 5 1 [32 0] [20 4]] (REQUEST)
r 1.163148111 _35_ RTR  --- 0 AODV 48 [0 ffffffff 24 800] ------- [36:255 -1:255 26 0] [0x2 5 1 [32 0] [20 4]] (REQUEST)
r 1.163148111 _37_ RTR  --- 0 AODV 48 [0 ffffffff 24 800] ------- [36:255 -1:255 26 0] [0x2 5 1 [32 0] [20 4]] (REQUEST)
r 1.163887740 _9_ RTR  --- 0 AODV 48 [0 ffffffff 4 800] ------- [4:255 -1:255 24 0] [0x2 7 1 [11 0] [28 4]] (REQUEST)
r 1.163888054 _3_ RTR  --- 0 AODV 48 [0 ffffffff 4 800] ------- [4:255 -1:255 24 0] [0x2 7 1 [11 0] [28 4]] (REQUEST)
r 1.166714391 _25_ RTR  --- 0 AODV 48 [0 ffffffff 14 800] ------- [20:255 -1:255 26 0] [0x2 5 1 [11 0] [28 4]] (REQUEST)
r 1.166714394 _15_ RTR  --- 0 AODV 48 [0 ffffffff 14 800] ------- [20:255 -1:255 26 0] [0x2 5 1 [11 0] [28 4]] (REQUEST)
r 1.166714704 _21_ RTR  --- 0 AODV 48 [0 ffffffff 14 800] ------- [20:255 -1:255 26 0] [0x2 5 1 [11 0] [28 4]] (REQUEST)
r 1.166852035 _7_ RTR  --- 0 AODV 48 [0 ffffffff 2 800] ------- [2:255 -1:255 24 0] [0x2 7 1 [11 0] [28 4]] (REQUEST)
r 1.166852348 _1_ RTR  --- 0 AODV 48 [0 ffffffff 2 800] ------- [2:255 -1:255 24 0] [0x2 7 1 [11 0] [28 4]] (REQUEST)
r 1.166852348 _3_ RTR  --- 0 AODV 48 [0 ffffffff 2 800] ------- [2:255 -1:255 24 0] [0x2 7 1 [11 0] [28 4]] (REQUEST)
s 1.167878373 _37_ RTR  --- 0 AODV 48 [0 ffffffff 24 800] ------- [37:255 -1:255 25 0] [0x2 6 1 [32 0] [20 4]] (REQUEST)
s 1.168020507 _35_ RTR  --- 0 AODV 48 [0 ffffffff 24 800] ------- [35:255 -1:255 25 0] [0x2 6 1 [11 0] [28 4]] (REQUEST)
s 1.170068781 _15_ RTR  --- 0 AODV 48 [0 ffffffff 10 800] ------- [15:255 -1:255 25 0] [0x2 6 1 [11 0] [28 4]] (REQUEST)
r 1.171303027 _30_ RTR  --- 0 AODV 48 [0 ffffffff 23 800] ------- [35:255 -1:255 25 0] [0x2 6 1 [11 0] [28 4]] (REQUEST)
r 1.171303340 _36_ RTR  --- 0 AODV 48 [0 ffffffff 23 800] ------- [35:255 -1:255 25 0] [0x2 6 1 [11 0] [28 4]] (REQUEST)
s 1.171574298 _31_ RTR  --- 0 AODV 48 [0 ffffffff 24 800] ------- [31:255 -1:255 25 0] [0x2 6 1 [32 0] [20 4]] (REQUEST)
r 1.171612937 _6_ RTR  --- 0 AODV 48 [0 ffffffff 1 800] ------- [1:255 -1:255 27 0] [0x2 4 1 [22 0] [10 4]] (REQUEST)
r 1.171613250 _0_ RTR  --- 0 AODV 48 [0 ffffffff 1 800] ------- [1:255 -1:255 27 0] [0x2 4 1 [22 0] [10 4]] (REQUEST)
r 1.171613250 _2_ RTR  --- 0 AODV 48 [0 ffffffff 1 800] ------- [1:255 -1:255 27 0] [0x2 4 1 [22 0] [10 4]] (REQUEST)
r 1.173528893 _32_ RTR  --- 0 AODV 48 [0 ffffffff 25 800] ------- [37:255 -1:255 25 0] [0x2 6 1 [32 0] [20 4]] (REQUEST)
s 1.173528893 _32_ RTR  --- 0 AODV 44 [0 0 0 0] ------- [32:255 20:255 30 37] [0x4 1 [32 4] 10.000000] (REPLY)
r 1.173529206 _36_ RTR  --- 0 AODV 48 [0 ffffffff 25 800] ------- [37:255 -1:255 25 0] [0x2 6 1 [32 0] [20 4]] (REQUEST)
r 1.173529206 _38_ RTR  --- 0 AODV 48 [0 ffffffff 25 800] ------- [37:255 -1:255 25 0] [0x2 6 1 [32 0] [20 4]] (REQUEST)
s 1.173876592 _38_ RTR  --- 0 AODV 48 [0 ffffffff 25 800] ------- [38:255 -1:255 24 0] [0x2 7 1 [32 0] [20 4]] (REQUEST)
s 1.174710150 _30_ RTR  --- 0 AODV 48 [0 ffffffff 23 800] ------- [30:255 -1:255 24 0] [0x2 7 1 [11 0] [28 4]] (REQUEST)
r 1.175079301 _10_ RTR  --- 0 AODV 48 [0 ffffffff f 800] ------- [15:255 -1:255 25 0] [0x2 6 1 [11 0] [28 4]] (REQUEST)
r 1.175079305 _20_ RTR  --- 0 AODV 48 [0 ffffffff f 800] ------- [15:255 -1:255 25 0] [0x2 6 1 [11 0] [28 4]] (REQUEST)
r 1.175079615 _16_ RTR  --- 0 AODV 48 [0 ffffffff f 800] ------- [15:255 -1:255 25 0] [0x2 6 1 [11 0] [28 4]] (REQUEST)
s 1.175320997 _25_ RTR  --- 0 AODV 48 [0 ffffffff 14 800] ------- [25:255 -1:255 25 0] [0x2 6 1 [11 0] [28 4]] (REQUEST)
s 1.175879836 _1_ RTR  --- 0 AODV 48 [0 ffffffff 2 800] ------- [1:255 -1:255 23 0] [0x2 8 1 [11 0] [28 4]] (REQUEST)
s 1.176008211 _7_ RTR  --- 0 AODV 48 [0 ffffffff 2 800] ------- [7:255 -1:255 23 0] [0x2 8 1 [11 0] [28 4]] (REQUEST)
s 1.177490625 _6_ RTR  --- 0 AODV 48 [0 ffffffff 1 800] ------- [6:255 -1:255 26 0] [0x2 5 1 [22 0] [10 4]] (REQUEST)
r 1.177992670 _35_ RTR  --- 0 AODV 48 [0 ffffffff 1e 800] ------- [30:255 -1:255 24 0] [0x2 7 1 [11 0] [28 4]] (REQUEST)
r 1.178076010 _21_ RTR  --- 0 AODV 48 [0 ffffffff 1a 800] ------- [26:255 -1:255 26 0] [0x2 5 1 [11 0] [28 4]] (REQUEST)
s 1.178134972 _2_ RTR  --- 0 AODV 48 [0 ffffffff 1 800] ------- [2:255 -1:255 26 0] [0x2 5 1 [22 0] [10 4]] (REQUEST)
r 1.179079112 _33_ RTR  --- 0 AODV 48 [0 ffffffff 26 800] ------- [38:255 -1:255 24 0] [0x2 7 1 [32 0] [20 4]] (REQUEST)
r 1.179079425 _39_ RTR  --- 0 AODV 48 [0 ffffffff 26 800] ------- [38:255 -1:255 24 0] [0x2 7 1 [32 0] [20 4]] (REQUEST)
r 1.179290731 _2_ RTR  --- 0 AODV 48 [0 ffffffff 7 800] ------- [7:255 -1:255 23 0] [0x2 8 1 [11 0] [28 4]] (REQUEST)
r 1.179290731 _12_ RTR  --- 0 AODV 48 [0 ffffffff 7 800] ------- [7:255 -1:255 23 0] [0x2 8 1 [11 0] [28 4]] (REQUEST)
r 1.179291044 _6_ RTR  --- 0 AODV 48 [0 ffffffff 7 800] ------- [7:255 -1:255 23 0] [0x2 8 1 [11 0] [28 4]] (REQUEST)
r 1.179291044 _8_ RTR  --- 0 AODV 48 [0 ffffffff 7 800] ------- [7:255 -1:255 23 0] [0x2 8 1 [11 0] [28 4]] (REQUEST)
s 1.179972654 _10_ RTR  --- 0 AODV 48 [0 ffffffff f 800] ------- [10:255 -1:255 24 0] [0x2 7 1 [11 0] [28 4]] (REQUEST)
s 1.181656962 _39_ RTR  --- 0 AODV 48 [0 ffffffff 26 800] ------- [39:255 -1:255 23 0] [0x2 8 1 [32 0] [20 4]] (REQUEST)
r 1.182053145 _1_ RTR  --- 0 AODV 48 [0 ffffffff 6 800] ------- [6:255 -1:255 26 0] [0x2 5 1 [22 0] [10 4]] (REQUEST)
r 1.182053145 _11_ RTR  --- 0 AODV 48 [0 ffffffff 6 800] ------- [6:255 -1:255 26 0] [0x2 5 1 [22 0] [10 4]] (REQUEST)
r 1.182053458 _5_ RTR  --- 0 AODV 48 [0 ffffffff 6 800] ------- [6:255 -1:255 26 0] [0x2 5 1 [22 0] [10 4]] (REQUEST)
r 1.182053458 _7_ RTR  --- 0 AODV 48 [0 ffffffff 6 800] ------- [6:255 -1:255 26 0] [0x2 5 1 [22 0] [10 4]] (REQUEST)
s 1.182807170 _11_ RTR  --- 0 AODV 48 [0 ffffffff 6 800] ------- [11:255 -1:255 25 0] [0x2 6 1 [22 0] [10 4]] (REQUEST)
s 1.183013483 _6_ RTR  --- 0 AODV 48 [0 ffffffff 7 800] ------- [6:255 -1:255 22 0] [0x2 9 1 [11 0] [28 4]] (REQUEST)
s 1.183771146 _33_ RTR  --- 0 AODV 48 [0 ffffffff 26 800] ------- [33:255 -1:255 23 0] [0x2 8 1 [32 0] [20 4]] (REQUEST)
r 1.184072818 _36_ RTR  --- 0 AODV 48 [0 ffffffff 1f 800] ------- [31:255 -1:255 25 0] [0x2 6 1 [32 0] [20 4]] (REQUEST)
r 1.184073132 _32_ RTR  --- 0 AODV 48 [0 ffffffff 1f 800] ------- [31:255 -1:255 25 0] [0x2 6 1 [32 0] [20 4]] (REQUEST)
r 1.184171517 _20_ RTR  --- 0 AODV 48 [0 ffffffff 19 800] ------- [25:255 -1:255 25 0] [0x2 6 1 [11 0] [28 4]] (REQUEST)
r 1.186409690 _6_ RTR  --- 0 AODV 48 [0 ffffffff b 800] ------- [11:255 -1:255 25 0] [0x2 6 1 [22 0] [10 4]] (REQUEST)
r 1.186409690 _16_ RTR  --- 0 AODV 48 [0 ffffffff b 800] ------- [11:255 -1:255 25 0] [0x2 6 1 [22 0] [10 4]] (REQUEST)
r 1.186410003 _10_ RTR  --- 0 AODV 48 [0 ffffffff b 800] ------- [11:255 -1:255 25 0] [0x2 6 1 [22 0] [10 4]] (REQUEST)
r 1.186665492 _7_ RTR  --- 0 AODV 48 [0 ffffffff 2 800] ------- [2:255 -1:255 26 0] [0x2 5 1 [22 0] [10 4]] (REQUEST)
r 1.186665805 _3_ RTR  --- 0 AODV 48 [0 ffffffff 2 800] ------- [2:255 -1:255 26 0] [0x2 5 1 [22 0] [10 4]] (REQUEST)
r 1.186733666 _28_ RTR  --- 0 AODV 48 [0 ffffffff 21 800] ------- [33:255 -1:255 23 0] [0x2 8 1 [32 0] [20 4]] (REQUEST)
r 1.186733979 _32_ RTR  --- 0 AODV 48 [0 ffffffff 21 800] ------- [33:255 -1:255 23 0] [0x2 8 1 [32 0] [20 4]] (REQUEST)
r 1.188984003 _1_ RTR  --- 0 AODV 48 [0 ffffffff 6 800] ------- [6:255 -1:255 22 0] [0x2 9 1 [11 0] [28 4]] (REQUEST)
r 1.188984003 _11_ RTR  --- 0 AODV 48 [0 ffffffff 6 800] ------- [6:255 -1:255 22 0] [0x2 9 1 [11 0] [28 4]] (REQUEST)
r 1.188984316 _5_ RTR  --- 0 AODV 48 [0 ffffffff 6 800] ------- [6:255 -1:255 22 0] [0x2 9 1 [11 0] [28 4]] (REQUEST)
r 1.188984316 _7_ RTR  --- 0 AODV 48 [0 ffffffff 6 800] ------- [6:255 -1:255 22 0] [0x2 9 1 [11 0] [28 4]] (REQUEST)
s 1.190287582 _3_ RTR  --- 0 AODV 48 [0 ffffffff 2 800] ------- [3:255 -1:255 25 0] [0x2 6 1 [22 0] [10 4]] (REQUEST)
s 1.191280085 _7_ RTR  --- 0 AODV 48 [0 ffffffff 6 800] ------- [7:255 -1:255 25 0] [0x2 6 1 [22 0] [10 4]] (REQUEST)
r 1.191831174 _5_ RTR  --- 0 AODV 48 [0 ffffffff a 800] ------- [10:255 -1:255 24 0] [0x2 7 1 [11 0] [28 4]] (REQUEST)
r 1.191831174 _15_ RTR  --- 0 AODV 48 [0 ffffffff a 800] ------- [10:255 -1:255 24 0] [0x2 7 1 [11 0] [28 4]] (REQUEST)
r 1.191831487 _11_ RTR  --- 0 AODV 48 [0 ffffffff a 800] ------- [10:255 -1:255 24 0] [0x2 7 1 [11 0] [28 4]] (REQUEST)
s 1.194705371 _28_ RTR  --- 0 AODV 48 [0 ffffffff 21 800] ------- [28:255 -1:255 22 0] [0x2 9 1 [32 0] [20 4]] (REQUEST)
s 1.195080176 _5_ RTR  --- 0 AODV 48 [0 ffffffff 6 800] ------- [5:255 -1:255 21 0] [0x2 10 1 [11 0] [28 4]] (REQUEST)
r 1.195170102 _8_ RTR  --- 0 AODV 48 [0 ffffffff 3 800] ------- [3:255 -1:255 25 0] [0x2 6 1 [22 0] [10 4]] (REQUEST)
r 1.195170415 _4_ RTR  --- 0 AODV 48 [0 ffffffff 3 800] ------- [3:255 -1:255 25 0] [0x2 6 1 [22 0] [10 4]] (REQUEST)
r 1.195354356 _6_ RTR  --- 0 AODV 48 [0 ffffffff 1 800] ------- [1:255 -1:255 23 0] [0x2 8 1 [11 0] [28 4]] (REQUEST)
r 1.195354669 _0_ RTR  --- 0 AODV 48 [0 ffffffff 1 800] ------- [1:255 -1:255 23 0] [0x2 8 1 [11 0] [28 4]] (REQUEST)
s 1.196271704 _16_ RTR  --- 0 AODV 48 [0 ffffffff b 800] ------- [16:255 -1:255 24 0] [0x2 7 1 [22 0] [10 4]] (REQUEST)
s 1.198165339 _0_ RTR  --- 0 AODV 48 [0 ffffffff 1 800] ------- [0:255 -1:255 22 0] [0x2 9 1 [11 0] [28 4]] (REQUEST)
r 1.198682696 _0_ RTR  --- 0 AODV 48 [0 ffffffff 5 800] ------- [5:255 -1:255 21 0] [0x2 10 1 [11 0] [28 4]] (REQUEST)
r 1.198682696 _10_ RTR  --- 0 AODV 48 [0 ffffffff 5 800] ------- [5:255 -1:255 21 0] [0x2 10 1 [11 0] [28 4]] (REQUEST)
r 1.198683009 _6_ RTR  --- 0 AODV 48 [0 ffffffff 5 800] ------- [5:255 -1:255 21 0] [0x2 10 1 [11 0] [28 4]] (REQUEST)
r 1.199907891 _23_ RTR  --- 0 AODV 48 [0 ffffffff 1c 800] ------- [28:255 -1:255 22 0] [0x2 9 1 [32 0] [20 4]] (REQUEST)
r 1.199908205 _29_ RTR  --- 0 AODV 48 [0 ffffffff 1c 800] ------- [28:255 -1:255 22 0] [0x2 9 1 [32 0] [20 4]] (REQUEST)
r 1.200290453 _37_ RTR  --- 0 AODV 44 [0 25 20 800] ------- [32:255 20:255 30 37] [0x4 1 [32 4] 10.000000] (REPLY)
f 1.200290453 _37_ RTR  --- 0 AODV 44 [0 25 20 800] ------- [32:255 20:255 29 36] [0x4 2 [32 4] 10.000000] (REPLY)
s 1.200880113 _8_ RTR  --- 0 AODV 48 [0 ffffffff 3 800] ------- [8:255 -1:255 24 0] [0x2 7 1 [22 0] [10 4]] (REQUEST)
s 1.202275526 _4_ RTR  --- 0 AODV 48 [0 ffffffff 3 800] ------- [4:255 -1:255 24 0] [0x2 7 1 [22 0] [10 4]] (REQUEST)
r 1.202306605 _2_ RTR  --- 0 AODV 48 [0 ffffffff 7 800] ------- [7:255 -1:255 25 0] [0x2 6 1 [22 0] [10 4]] (REQUEST)
r 1.202306605 _12_ RTR  --- 0 AODV 48 [0 ffffffff 7 800] ------- [7:255 -1:255 25 0] [0x2 6 1 [22 0] [10 4]] (REQUEST)
r 1.202306919 _6_ RTR  --- 0 AODV 48 [0 ffffffff 7 800] ------- [7:255 -1:255 25 0] [0x2 6 1 [22 0] [10 4]] (REQUEST)
r 1.202306919 _8_ RTR  --- 0 AODV 48 [0 ffffffff 7 800] ------- [7:255 -1:255 25 0] [0x2 6 1 [22 0] [10 4]] (REQUEST)
s 1.203603729 _12_ RTR  --- 0 AODV 48 [0 ffffffff 7 800] ------- [12:255 -1:255 24 0] [0x2 7 1 [22 0] [10 4]] (REQUEST)
s 1.204939849 _23_ RTR  --- 0 AODV 48 [0 ffffffff 1c 800] ------- [23:255 -1:255 21 0] [0x2 10 1 [32 0] [20 4]] (REQUEST)
r 1.205762224 _11_ RTR  --- 0 AODV 48 [0 ffffffff 10 800] ------- [16:255 -1:255 24 0] [0x2 7 1 [22 0] [10 4]] (REQUEST)
r 1.205762227 _21_ RTR  --- 0 AODV 48 [0 ffffffff 10 800] ------- [16:255 -1:255 24 0] [0x2 7 1 [22 0] [10 4]] (REQUEST)
r 1.205762537 _15_ RTR  --- 0 AODV 48 [0 ffffffff 10 800] ------- [16:255 -1:255 24 0] [0x2 7 1 [22 0] [10 4]] (REQUEST)
r 1.205762537 _17_ RTR  --- 0 AODV 48 [0 ffffffff 10 800] ------- [16:255 -1:255 24 0] [0x2 7 1 [22 0] [10 4]] (REQUEST)
s 1.206500506 _29_ RTR  --- 0 AODV 48 [0 ffffffff 1c 800] ------- [29:255 -1:255 21 0] [0x2 10 1 [32 0] [20 4]] (REQUEST)
s 1.207007554 _21_ RTR  --- 0 AODV 48 [0 ffffffff 10 800] ------- [21:255 -1:255 23 0] [0x2 8 1 [22 0] [10 4]] (REQUEST)
r 1.207158046 _9_ RTR  --- 0 AODV 48 [0 ffffffff 4 800] ------- [4:255 -1:255 24 0] [0x2 7 1 [22 0] [10 4]] (REQUEST)
r 1.208350369 _28_ RTR  --- 0 AODV 48 [0 ffffffff 17 800] ------- [23:255 -1:255 21 0] [0x2 10 1 [32 0] [20 4]] (REQUEST)
r 1.208350372 _18_ RTR  --- 0 AODV 48 [0 ffffffff 17 800] ------- [23:255 -1:255 21 0] [0x2 10 1 [32 0] [20 4]] (REQUEST)
r 1.208350682 _24_ RTR  --- 0 AODV 48 [0 ffffffff 17 800] ------- [23:255 -1:255 21 0] [0x2 10 1 [32 0] [20 4]] (REQUEST)
r 1.208486249 _7_ RTR  --- 0 AODV 48 [0 ffffffff c 800] ------- [12:255 -1:255 24 0] [0x2 7 1 [22 0] [10 4]] (REQUEST)
r 1.208486249 _17_ RTR  --- 0 AODV 48 [0 ffffffff c 800] ------- [12:255 -1:255 24 0] [0x2 7 1 [22 0] [10 4]] (REQUEST)
r 1.208486563 _11_ RTR  --- 0 AODV 48 [0 ffffffff c 800] ------- [12:255 -1:255 24 0] [0x2 7 1 [22 0] [10 4]] (REQUEST)
s 1.210404125 _24_ RTR  --- 0 AODV 48 [0 ffffffff 17 800] ------- [24:255 -1:255 20 0] [0x2 11 1 [32 0] [20 4]] (REQUEST)
s 1.210416669 _17_ RTR  --- 0 AODV 48 [0 ffffffff 10 800] ------- [17:255 -1:255 23 0] [0x2 8 1 [22 0] [10 4]] (REQUEST)
r 1.211191026 _24_ RTR  --- 0 AODV 48 [0 ffffffff 1d 800] ------- [29:255 -1:255 21 0] [0x2 10 1 [32 0] [20 4]] (REQUEST)
r 1.211191026 _34_ RTR  --- 0 AODV 48 [0 ffffffff 1d 800] ------- [29:255 -1:255 21 0] [0x2 10 1 [32 0] [20 4]] (REQUEST)
r 1.211890074 _26_ RTR  --- 0 AODV 48 [0 ffffffff 15 800] ------- [21:255 -1:255 23 0] [0x2 8 1 [22 0] [10 4]] (REQUEST)