s 1.106011134 _37_ AGT  --- 0 tcp 40 [0 0 0 0] ------- [37:2 23:0 32 0] [0 0] 0 0
r 1.106011134 _37_ RTR  --- 0 tcp 40 [0 0 0 0] ------- [37:2 23:0 32 0] [0 0] 0 0
s 1.106011134 _37_ RTR  --- 0 AODV 48 [0 0 0 0] ------- [37:255 -1:255 30 0] [0x2 1 1 [23 0] [37 4]] (REQUEST)
r 1.109933237 _32_ RTR  --- 0 AODV 48 [0 ffffffff 25 800] ------- [37:255 -1:255 30 0] [0x2 1 1 [23 0] [37 4]] (REQUEST)
r 1.109933300 _36_ RTR  --- 0 AODV 48 [0 ffffffff 25 800] ------- [37:255 -1:255 30 0] [0x2 1 1 [23 0] [37 4]] (REQUEST)
r 1.109933300 _38_ RTR  --- 0 AODV 48 [0 ffffffff 25 800] ------- [37:255 -1:255 30 0] [0x2 1 1 [23 0] [37 4]] (REQUEST)
r 1.109933330 _33_ RTR  --- 0 AODV 48 [0 ffffffff 25 800] ------- [37:255 -1:255 30 0] [0x2 1 1 [23 0] [37 4]] (REQUEST)
r 1.109933330 _31_ RTR  --- 0 AODV 48 [0 ffffffff 25 800] ------- [37:255 -1:255 30 0] [0x2 1 1 [23 0] [37 4]] (REQUEST)
r 1.109933340 _27_ RTR  --- 0 AODV 48 [0 ffffffff 25 800] ------- [37:255 -1:255 30 0] [0x2 1 1 [23 0] [37 4]] (REQUEST)
r 1.109933399 _28_ RTR  --- 0 AODV 48 [0 ffffffff 25 800] ------- [37:255 -1:255 30 0] [0x2 1 1 [23 0] [37 4]] (REQUEST)
r 1.109933399 _26_ RTR  --- 0 AODV 48 [0 ffffffff 25 800] ------- [37:255 -1:255 30 0] [0x2 1 1 [23 0] [37 4]] (REQUEST)
r 1.109933444 _22_ RTR  --- 0 AODV 48 [0 ffffffff 25 800] ------- [37:255 -1:255 30 0] [0x2 1 1 [23 0] [37 4]] (REQUEST)
r 1.109933467 _35_ RTR  --- 0 AODV 48 [0 ffffffff 25 800] ------- [37:255 -1:255 30 0] [0x2 1 1 [23 0] [37 4]] (REQUEST)
r 1.109933467 _39_ RTR  --- 0 AODV 48 [0 ffffffff 25 800] ------- [37:255 -1:255 30 0] [0x2 1 1 [23 0] [37 4]] (REQUEST)
r 1.109933483 _34_ RTR  --- 0 AODV 48 [0 ffffffff 25 800] ------- [37:255 -1:255 30 0] [0x2 1 1 [23 0] [37 4]] (REQUEST)
r 1.109933483 _30_ RTR  --- 0 AODV 48 [0 ffffffff 25 800] ------- [37:255 -1:255 30 0] [0x2 1 1 [23 0] [37 4]] (REQUEST)
r 1.109933486 _23_ RTR  --- 0 AODV 48 [0 ffffffff 25 800] ------- [37:255 -1:255 30 0] [0x2 1 1 [23 0] [37 4]] (REQUEST)
r 1.109933486 _21_ RTR  --- 0 AODV 48 [0 ffffffff 25 800] ------- [37:255 -1:255 30 0] [0x2 1 1 [23 0] [37 4]] (REQUEST)
s 1.109933486 _23_ RTR  --- 0 AODV 44 [0 0 0 0] ------- [23:255 37:255 30 37] [0x4 1 [23 4] 10.000000] (REPLY)
r 1.109933526 _29_ RTR  --- 0 AODV 48 [0 ffffffff 25 800] ------- [37:255 -1:255 30 0] [0x2 1 1 [23 0] [37 4]] (REQUEST)
r 1.109933526 _25_ RTR  --- 0 AODV 48 [0 ffffffff 25 800] ------- [37:255 -1:255 30 0] [0x2 1 1 [23 0] [37 4]] (REQUEST)
r 1.109933550 _17_ RTR  --- 0 AODV 48 [0 ffffffff 25 800] ------- [37:255 -1:255 30 0] [0x2 1 1 [23 0] [37 4]] (REQUEST)
r 1.109933582 _18_ RTR  --- 0 AODV 48 [0 ffffffff 25 800] ------- [37:255 -1:255 30 0] [0x2 1 1 [23 0] [37 4]] (REQUEST)
r 1.109933582 _16_ RTR  --- 0 AODV 48 [0 ffffffff 25 800] ------- [37:255 -1:255 30 0] [0x2 1 1 [23 0] [37 4]] (REQUEST)
r 1.109933589 _24_ RTR  --- 0 AODV 48 [0 ffffffff 25 800] ------- [37:255 -1:255 30 0] [0x2 1 1 [23 0] [37 4]] (REQUEST)
r 1.109933589 _20_ RTR  --- 0 AODV 48 [0 ffffffff 25 800] ------- [37:255 -1:255 30 0] [0x2 1 1 [23 0] [37 4]] (REQUEST)
r 1.109933654 _12_ RTR  --- 0 AODV 48 [0 ffffffff 25 800] ------- [37:255 -1:255 30 0] [0x2 1 1 [23 0] [37 4]] (REQUEST)
r 1.109933667 _19_ RTR  --- 0 AODV 48 [0 ffffffff 25 800] ------- [37:255 -1:255 30 0] [0x2 1 1 [23 0] [37 4]] (REQUEST)
r 1.109933667 _15_ RTR  --- 0 AODV 48 [0 ffffffff 25 800] ------- [37:255 -1:255 30 0] [0x2 1 1 [23 0] [37 4]] (REQUEST)
r 1.109933680 _13_ RTR  --- 0 AODV 48 [0 ffffffff 25 800] ------- [37:255 -1:255 30 0] [0x2 1 1 [23 0] [37 4]] (REQUEST)
r 1.109933680 _11_ RTR  --- 0 AODV 48 [0 ffffffff 25 800] ------- [37:255 -1:255 30 0] [0x2 1 1 [23 0] [37 4]] (REQUEST)
r 1.109933751 _14_ RTR  --- 0 AODV 48 [0 ffffffff 25 800] ------- [37:255 -1:255 30 0] [0x2 1 1 [23 0] [37 4]] (REQUEST)
r 1.109933751 _10_ RTR  --- 0 AODV 48 [0 ffffffff 25 800] ------- [37:255 -1:255 30 0] [0x2 1 1 [23 0] [37 4]] (REQUEST)
r 1.109933757 _7_ RTR  --- 0 AODV 48 [0 ffffffff 25 800] ------- [37:255 -1:255 30 0] [0x2 1 1 [23 0] [37 4]] (REQUEST)
r 1.109933779 _8_ RTR  --- 0 AODV 48 [0 ffffffff 25 800] ------- [37:255 -1:255 30 0] [0x2 1 1 [23 0] [37 4]] (REQUEST)
r 1.109933779 _6_ RTR  --- 0 AODV 48 [0 ffffffff 25 800] ------- [37:255 -1:255 30 0] [0x2 1 1 [23 0] [37 4]] (REQUEST)
r 1.109933840 _9_ RTR  --- 0 AODV 48 [0 ffffffff 25 800] ------- [37:255 -1:255 30 0] [0x2 1 1 [23 0] [37 4]] (REQUEST)
r 1.109933840 _5_ RTR  --- 0 AODV 48 [0 ffffffff 25 800] ------- [37:255 -1:255 30 0] [0x2 1 1 [23 0] [37 4]] (REQUEST)
r 1.109933860 _2_ RTR  --- 0 AODV 48 [0 ffffffff 25 800] ------- [37:255 -1:255 30 0] [0x2 1 1 [23 0] [37 4]] (REQUEST)
r 1.109933879 _3_ RTR  --- 0 AODV 48 [0 ffffffff 25 800] ------- [37:255 -1:255 30 0] [0x2 1 1 [23 0] [37 4]] (REQUEST)
r 1.109933879 _1_ RTR  --- 0 AODV 48 [0 ffffffff 25 800] ------- [37:255 -1:255 30 0] [0x2 1 1 [23 0] [37 4]] (REQUEST)
r 1.109933933 _4_ RTR  --- 0 AODV 48 [0 ffffffff 25 800] ------- [37:255 -1:255 30 0] [0x2 1 1 [23 0] [37 4]] (REQUEST)
r 1.109933933 _0_ RTR  --- 0 AODV 48 [0 ffffffff 25 800] ------- [37:255 -1:255 30 0] [0x2 1 1 [23 0] [37 4]] (REQUEST)
s 1.110328502 _35_ RTR  --- 0 AODV 48 [0 ffffffff 25 800] ------- [35:255 -1:255 29 0] [0x2 2 1 [23 0] [37 4]] (REQUEST)
s 1.110520505 _29_ RTR  --- 0 AODV 48 [0 ffffffff 25 800] ------- [29:255 -1:255 29 0] [0x2 2 1 [23 0] [37 4]] (REQUEST)
s 1.110578289 _28_ RTR  --- 0 AODV 48 [0 ffffffff 25 800] ------- [28:255 -1:255 29 0] [0x2 2 1 [23 0] [37 4]] (REQUEST)
s 1.110598629 _6_ RTR  --- 0 AODV 48 [0 ffffffff 25 800] ------- [6:255 -1:255 29 0] [0x2 2 1 [23 0] [37 4]] (REQUEST)
s 1.111451690 _14_ RTR  --- 0 AODV 48 [0 ffffffff 25 800] ------- [14:255 -1:255 29 0] [0x2 2 1 [23 0] [37 4]] (REQUEST)
s 1.111518467 _31_ RTR  --- 0 AODV 48 [0 ffffffff 25 800] ------- [31:255 -1:255 29 0] [0x2 2 1 [23 0] [37 4]] (REQUEST)
s 1.111700247 _26_ RTR  --- 0 AODV 48 [0 ffffffff 25 800] ------- [26:255 -1:255 29 0] [0x2 2 1 [23 0] [37 4]] (REQUEST)
s 1.112201789 _30_ RTR  --- 0 AODV 48 [0 ffffffff 25 800] ------- [30:255 -1:255 29 0] [0x2 2 1 [23 0] [37 4]] (REQUEST)
s 1.112223357 _24_ RTR  --- 0 AODV 48 [0 ffffffff 25 800] ------- [24:255 -1:255 29 0] [0x2 2 1 [23 0] [37 4]] (REQUEST)
s 1.112288747 _27_ RTR  --- 0 AODV 48 [0 ffffffff 25 800] ------- [27:255 -1:255 29 0] [0x2 2 1 [23 0] [37 4]] (REQUEST)
s 1.112562488 _1_ RTR  --- 0 AODV 48 [0 ffffffff 25 800] ------- [1:255 -1:255 29 0] [0x2 2 1 [23 0] [37 4]] (REQUEST)
s 1.113333139 _25_ RTR  --- 0 AODV 48 [0 ffffffff 25 800] ------- [25:255 -1:255 29 0] [0x2 2 1 [23 0] [37 4]] (REQUEST)
s 1.114267685 _16_ RTR  --- 0 AODV 48 [0 ffffffff 25 800] ------- [16:255 -1:255 29 0] [0x2 2 1 [23 0] [37 4]] (REQUEST)
s 1.114352020 _20_ RTR  --- 0 AODV 48 [0 ffffffff 25 800] ------- [20:255 -1:255 29 0] [0x2 2 1 [23 0] [37 4]] (REQUEST)
s 1.114533405 _19_ RTR  --- 0 AODV 48 [0 ffffffff 25 800] ------- [19:255 -1:255 29 0] [0x2 2 1 [23 0] [37 4]] (REQUEST)
s 1.114729095 _4_ RTR  --- 0 AODV 48 [0 ffffffff 25 800] ------- [4:255 -1:255 29 0] [0x2 2 1 [23 0] [37 4]] (REQUEST)
s 1.114780978 _32_ RTR  --- 0 AODV 48 [0 ffffffff 25 800] ------- [32:255 -1:255 29 0] [0x2 2 1 [23 0] [37 4]] (REQUEST)
r 1.114800570 _36_ RTR  --- 0 AODV 48 [0 ffffffff 1f 800] ------- [31:255 -1:255 29 0] [0x2 2 1 [23 0] [37 4]] (REQUEST)
r 1.114800633 _30_ RTR  --- 0 AODV 48 [0 ffffffff 1f 800] ------- [31:255 -1:255 29 0] [0x2 2 1 [23 0] [37 4]] (REQUEST)
r 1.114800663 _35_ RTR  --- 0 AODV 48 [0 ffffffff 1f 800] ------- [31:255 -1:255 29 0] [0x2 2 1 [23 0] [37 4]] (REQUEST)
r 1.114820393 _23_ RTR  --- 0 AODV 48 [0 ffffffff 1c 800] ------- [28:255 -1:255 29 0] [0x2 2 1 [23 0] [37 4]] (REQUEST)
r 1.114820393 _33_ RTR  --- 0 AODV 48 [0 ffffffff 1c 800] ------- [28:255 -1:255 29 0] [0x2 2 1 [23 0] [37 4]] (REQUEST)
r 1.114820456 _29_ RTR  --- 0 AODV 48 [0 ffffffff 1c 800] ------- [28:255 -1:255 29 0] [0x2 2 1 [23 0] [37 4]] (REQUEST)
r 1.114820485 _24_ RTR  --- 0 AODV 48 [0 ffffffff 1c 800] ------- [28:255 -1:255 29 0] [0x2 2 1 [23 0] [37 4]] (REQUEST)
r 1.114820485 _34_ RTR  --- 0 AODV 48 [0 ffffffff 1c 800] ------- [28:255 -1:255 29 0] [0x2 2 1 [23 0] [37 4]] (REQUEST)
r 1.114820555 _39_ RTR  --- 0 AODV 48 [0 ffffffff 1c 800] ------- [28:255 -1:255 29 0] [0x2 2 1 [23 0] [37 4]] (REQUEST)
r 1.114840733 _1_ RTR  --- 0 AODV 48 [0 ffffffff 6 800] ------- [6:255 -1:255 29 0] [0x2 2 1 [23 0] [37 4]] (REQUEST)
r 1.114840733 _11_ RTR  --- 0 AODV 48 [0 ffffffff 6 800] ------- [6:255 -1:255 29 0] [0x2 2 1 [23 0] [37 4]] (REQUEST)
r 1.114840796 _5_ RTR  --- 0 AODV 48 [0 ffffffff 6 800] ------- [6:255 -1:255 29 0] [0x2 2 1 [23 0] [37 4]] (REQUEST)
r 1.114840796 _7_ RTR  --- 0 AODV 48 [0 ffffffff 6 800] ------- [6:255 -1:255 29 0] [0x2 2 1 [23 0] [37 4]] (REQUEST)
r 1.114840825 _2_ RTR  --- 0 AODV 48 [0 ffffffff 6 800] ------- [6:255 -1:255 29 0] [0x2 2 1 [23 0] [37 4]] (REQUEST)
r 1.114840825 _0_ RTR  --- 0 AODV 48 [0 ffffffff 6 800] ------- [6:255 -1:255 29 0] [0x2 2 1 [23 0] [37 4]] (REQUEST)
s 1.115114139 _5_ RTR  --- 0 AODV 48 [0 ffffffff 25 800] ------- [5:255 -1:255 29 0] [0x2 2 1 [23 0] [37 4]] (REQUEST)
s 1.115287305 _8_ RTR  --- 0 AODV 48 [0 ffffffff 25 800] ------- [8:255 -1:255 29 0] [0x2 2 1 [23 0] [37 4]] (REQUEST)
s 1.115336074 _7_ RTR  --- 0 AODV 48 [0 ffffffff 25 800] ------- [7:255 -1:255 29 0] [0x2 2 1 [23 0] [37 4]] (REQUEST)
s 1.115718479 _39_ RTR  --- 0 AODV 48 [0 ffffffff 25 800] ------- [39:255 -1:255 29 0] [0x2 2 1 [23 0] [37 4]] (REQUEST)
s 1.116162199 _38_ RTR  --- 0 AODV 48 [0 ffffffff 25 800] ------- [38:255 -1:255 29 0] [0x2 2 1 [23 0] [37 4]] (REQUEST)
s 1.116304377 _18_ RTR  --- 0 AODV 48 [0 ffffffff 25 800] ------- [18:255 -1:255 29 0] [0x2 2 1 [23 0] [37 4]] (REQUEST)
s 1.116995564 _34_ RTR  --- 0 AODV 48 [0 ffffffff 25 800] ------- [34:255 -1:255 29 0] [0x2 2 1 [23 0] [37 4]] (REQUEST)
r 1.117066606 _30_ RTR  --- 0 AODV 48 [0 ffffffff 23 800] ------- [35:255 -1:255 29 0] [0x2 2 1 [23 0] [37 4]] (REQUEST)
r 1.117066669 _36_ RTR  --- 0 AODV 48 [0 ffffffff 23 800] ------- [35:255 -1:255 29 0] [0x2 2 1 [23 0] [37 4]] (REQUEST)
r 1.117066698 _31_ RTR  --- 0 AODV 48 [0 ffffffff 23 800] ------- [35:255 -1:255 29 0] [0x2 2 1 [23 0] [37 4]] (REQUEST)
r 1.117066709 _25_ RTR  --- 0 AODV 48 [0 ffffffff 23 800] ------- [35:255 -1:255 29 0] [0x2 2 1 [23 0] [37 4]] (REQUEST)
r 1.117066768 _26_ RTR  --- 0 AODV 48 [0 ffffffff 23 800] ------- [35:255 -1:255 29 0] [0x2 2 1 [23 0] [37 4]] (REQUEST)
r 1.117066812 _20_ RTR  --- 0 AODV 48 [0 ffffffff 23 800] ------- [35:255 -1:255 29 0] [0x2 2 1 [23 0] [37 4]] (REQUEST)
r 1.117066836 _37_ RTR  --- 0 AODV 48 [0 ffffffff 23 800] ------- [35:255 -1:255 29 0] [0x2 2 1 [23 0] [37 4]] (REQUEST)
r 1.117066851 _32_ RTR  --- 0 AODV 48 [0 ffffffff 23 800] ------- [35:255 -1:255 29 0] [0x2 2 1 [23 0] [37 4]] (REQUEST)
r 1.117066854 _21_ RTR  --- 0 AODV 48 [0 ffffffff 23 800] ------- [35:255 -1:255 29 0] [0x2 2 1 [23 0] [37 4]] (REQUEST)
r 1.117066894 _27_ RTR  --- 0 AODV 48 [0 ffffffff 23 800] ------- [35:255 -1:255 29 0] [0x2 2 1 [23 0] [37 4]] (REQUEST)
r 1.117066919 _15_ RTR  --- 0 AODV 48 [0 ffffffff 23 800] ------- [35:255 -1:255 29 0] [0x2 2 1 [23 0] [37 4]] (REQUEST)
r 1.117066951 _16_ RTR  --- 0 AODV 48 [0 ffffffff 23 800] ------- [35:255 -1:255 29 0] [0x2 2 1 [23 0] [37 4]] (REQUEST)
r 1.117066957 _22_ RTR  --- 0 AODV 48 [0 ffffffff 23 800] ------- [35:255 -1:255 29 0] [0x2 2 1 [23 0] [37 4]] (REQUEST)
r 1.117067002 _38_ RTR  --- 0 AODV 48 [0 ffffffff 23 800] ------- [35:255 -1:255 29 0] [0x2 2 1 [23 0] [37 4]] (REQUEST)
r 1.117067013 _33_ RTR  --- 0 AODV 48 [0 ffffffff 23 800] ------- [35:255 -1:255 29 0] [0x2 2 1 [23 0] [37 4]] (REQUEST)
r 1.117067022 _10_ RTR  --- 0 AODV 48 [0 ffffffff 23 800] ------- [35:255 -1:255 29 0] [0x2 2 1 [23 0] [37 4]] (REQUEST)
r 1.117067036 _17_ RTR  --- 0 AODV 48 [0 ffffffff 23 800] ------- [35:255 -1:255 29 0] [0x2 2 1 [23 0] [37 4]] (REQUEST)
r 1.117067043 _28_ RTR  --- 0 AODV 48 [0 ffffffff 23 800] ------- [35:255 -1:255 29 0] [0x2 2 1 [23 0] [37 4]] (REQUEST)
r 1.117067048 _11_ RTR  --- 0 AODV 48 [0 ffffffff 23 800] ------- [35:255 -1:255 29 0] [0x2 2 1 [23 0] [37 4]] (REQUEST)
r 1.117067091 _23_ RTR  --- 0 AODV 48 [0 ffffffff 23 800] ------- [35:255 -1:255 29 0] [0x2 2 1 [23 0] [37 4]] (REQUEST)
r 1.117067120 _12_ RTR  --- 0 AODV 48 [0 ffffffff 23 800] ------- [35:255 -1:255 29 0] [0x2 2 1 [23 0] [37 4]] (REQUEST)
r 1.117067126 _5_ RTR  --- 0 AODV 48 [0 ffffffff 23 800] ------- [35:255 -1:255 29 0] [0x2 2 1 [23 0] [37 4]] (REQUEST)
r 1.117067148 _6_ RTR  --- 0 AODV 48 [0 ffffffff 23 800] ------- [35:255 -1:255 29 0] [0x2 2 1 [23 0] [37 4]] (REQUEST)
r 1.117067153 _18_ RTR  --- 0 AODV 48 [0 ffffffff 23 800] ------- [35:255 -1:255 29 0] [0x2 2 1 [23 0] [37 4]] (REQUEST)
r 1.117067169 _39_ RTR  --- 0 AODV 48 [0 ffffffff 23 800] ------- [35:255 -1:255 29 0] [0x2 2 1 [23 0] [37 4]] (REQUEST)
r 1.117067177 _34_ RTR  --- 0 AODV 48 [0 ffffffff 23 800] ------- [35:255 -1:255 29 0] [0x2 2 1 [23 0] [37 4]] (REQUEST)
r 1.117067200 _29_ RTR  --- 0 AODV 48 [0 ffffffff 23 800] ------- [35:255 -1:255 29 0] [0x2 2 1 [23 0] [37 4]] (REQUEST)
r 1.117067209 _7_ RTR  --- 0 AODV 48 [0 ffffffff 23 800] ------- [35:255 -1:255 29 0] [0x2 2 1 [23 0] [37 4]] (REQUEST)
r 1.117067224 _13_ RTR  --- 0 AODV 48 [0 ffffffff 23 800] ------- [35:255 -1:255 29 0] [0x2 2 1 [23 0] [37 4]] (REQUEST)
r 1.117067229 _0_ RTR  --- 0 AODV 48 [0 ffffffff 23 800] ------- [35:255 -1:255 29 0] [0x2 2 1 [23 0] [37 4]] (REQUEST)
r 1.117067237 _24_ RTR  --- 0 AODV 48 [0 ffffffff 23 800] ------- [35:255 -1:255 29 0] [0x2 2 1 [23 0] [37 4]] (REQUEST)
r 1.117067248 _1_ RTR  --- 0 AODV 48 [0 ffffffff 23 800] ------- [35:255 -1:255 29 0] [0x2 2 1 [23 0] [37 4]] (REQUEST)
r 1.117067288 _19_ RTR  --- 0 AODV 48 [0 ffffffff 23 800] ------- [35:255 -1:255 29 0] [0x2 2 1 [23 0] [37 4]] (REQUEST)
r 1.117067301 _8_ RTR  --- 0 AODV 48 [0 ffffffff 23 800] ------- [35:255 -1:255 29 0] [0x2 2 1 [23 0] [37 4]] (REQUEST)
r 1.117067302 _2_ RTR  --- 0 AODV 48 [0 ffffffff 23 800] ------- [35:255 -1:255 29 0] [0x2 2 1 [23 0] [37 4]] (REQUEST)
s 1.117231753 _3_ RTR  --- 0 AODV 48 [0 ffffffff 25 800] ------- [3:255 -1:255 29 0] [0x2 2 1 [23 0] [37 4]] (REQUEST)
s 1.117430865 _0_ RTR  --- 0 AODV 48 [0 ffffffff 25 800] ------- [0:255 -1:255 29 0] [0x2 2 1 [23 0] [37 4]] (REQUEST)
s 1.117873930 _17_ RTR  --- 0 AODV 48 [0 ffffffff 25 800] ------- [17:255 -1:255 29 0] [0x2 2 1 [23 0] [37 4]] (REQUEST)
s 1.118235899 _21_ RTR  --- 0 AODV 48 [0 ffffffff 25 800] ------- [21:255 -1:255 29 0] [0x2 2 1 [23 0] [37 4]] (REQUEST)
s 1.118441158 _33_ RTR  --- 0 AODV 48 [0 ffffffff 25 800] ------- [33:255 -1:255 29 0] [0x2 2 1 [23 0] [37 4]] (REQUEST)
s 1.118646892 _22_ RTR  --- 0 AODV 48 [0 ffffffff 25 800] ------- [22:255 -1:255 29 0] [0x2 2 1 [23 0] [37 4]] (REQUEST)
s 1.118743656 _2_ RTR  --- 0 AODV 48 [0 ffffffff 25 800] ------- [2:255 -1:255 29 0] [0x2 2 1 [23 0] [37 4]] (REQUEST)
s 1.118901309 _36_ RTR  --- 0 AODV 48 [0 ffffffff 25 800] ------- [36:255 -1:255 29 0] [0x2 2 1 [23 0] [37 4]] (REQUEST)
s 1.118948049 _15_ RTR  --- 0 AODV 48 [0 ffffffff 25 800] ------- [15:255 -1:255 29 0] [0x2 2 1 [23 0] [37 4]] (REQUEST)
s 1.118990751 _11_ RTR  --- 0 AODV 48 [0 ffffffff 25 800] ------- [11:255 -1:255 29 0] [0x2 2 1 [23 0] [37 4]] (REQUEST)
r 1.119300591 _6_ RTR  --- 0 AODV 48 [0 ffffffff 1 800] ------- [1:255 -1:255 29 0] [0x2 2 1 [23 0] [37 4]] (REQUEST)
r 1.119300655 _0_ RTR  --- 0 AODV 48 [0 ffffffff 1 800] ------- [1:255 -1:255 29 0] [0x2 2 1 [23 0] [37 4]] (REQUEST)
r 1.119300655 _2_ RTR  --- 0 AODV 48 [0 ffffffff 1 800] ------- [1:255 -1:255 29 0] [0x2 2 1 [23 0] [37 4]] (REQUEST)
r 1.119300684 _5_ RTR  --- 0 AODV 48 [0 ffffffff 1 800] ------- [1:255 -1:255 29 0] [0x2 2 1 [23 0] [37 4]] (REQUEST)
r 1.119300684 _7_ RTR  --- 0 AODV 48 [0 ffffffff 1 800] ------- [1:255 -1:255 29 0] [0x2 2 1 [23 0] [37 4]] (REQUEST)
r 1.119300695 _11_ RTR  --- 0 AODV 48 [0 ffffffff 1 800] ------- [1:255 -1:255 29 0] [0x2 2 1 [23 0] [37 4]] (REQUEST)
r 1.119300753 _10_ RTR  --- 0 AODV 48 [0 ffffffff 1 800] ------- [1:255 -1:255 29 0] [0x2 2 1 [23 0] [37 4]] (REQUEST)
r 1.119300840 _15_ RTR  --- 0 AODV 48 [0 ffffffff 1 800] ------- [1:255 -1:255 29 0] [0x2 2 1 [23 0] [37 4]] (REQUEST)
s 1.119332842 _12_ RTR  --- 0 AODV 48 [0 ffffffff 25 800] ------- [12:255 -1:255 29 0] [0x2 2 1 [23 0] [37 4]] (REQUEST)
r 1.119370608 _24_ RTR  --- 0 AODV 48 [0 ffffffff 1d 800] ------- [29:255 -1:255 29 0] [0x2 2 1 [23 0] [37 4]] (REQUEST)
r 1.119370608 _34_ RTR  --- 0 AODV 48 [0 ffffffff 1d 800] ------- [29:255 -1:255 29 0] [0x2 2 1 [23 0] [37 4]] (REQUEST)
r 1.119370672 _28_ RTR  --- 0 AODV 48 [0 ffffffff 1d 800] ------- [29:255 -1:255 29 0] [0x2 2 1 [23 0] [37 4]] (REQUEST)
r 1.119370701 _23_ RTR  --- 0 AODV 48 [0 ffffffff 1d 800] ------- [29:255 -1:255 29 0] [0x2 2 1 [23 0] [37 4]] (REQUEST)
r 1.119370701 _33_ RTR  --- 0 AODV 48 [0 ffffffff 1d 800] ------- [29:255 -1:255 29 0] [0x2 2 1 [23 0] [37 4]] (REQUEST)
r 1.119370712 _39_ RTR  --- 0 AODV 48 [0 ffffffff 1d 800] ------- [29:255 -1:255 29 0] [0x2 2 1 [23 0] [37 4]] (REQUEST)
r 1.119370715 _19_ RTR  --- 0 AODV 48 [0 ffffffff 1d 800] ------- [29:255 -1:255 29 0] [0x2 2 1 [23 0] [37 4]] (REQUEST)
r 1.119370770 _38_ RTR  --- 0 AODV 48 [0 ffffffff 1d 800] ------- [29:255 -1:255 29 0] [0x2 2 1 [23 0] [37 4]] (REQUEST)
r 1.119370854 _32_ RTR  --- 0 AODV 48 [0 ffffffff 1d 800] ------- [29:255 -1:255 29 0] [0x2 2 1 [23 0] [37 4]] (REQUEST)
r 1.119370897 _37_ RTR  --- 0 AODV 48 [0 ffffffff 1d 800] ------- [29:255 -1:255 29 0] [0x2 2 1 [23 0] [37 4]] (REQUEST)
s 1.119383992 _10_ RTR  --- 0 AODV 48 [0 ffffffff 25 800] ------- [10:255 -1:255 29 0] [0x2 2 1 [23 0] [37 4]] (REQUEST)
s 1.119510875 _13_ RTR  --- 0 AODV 48 [0 ffffffff 25 800] ------- [13:255 -1:255 29 0] [0x2 2 1 [23 0] [37 4]] (REQUEST)
s 1.119652147 _9_ RTR  --- 0 AODV 48 [0 ffffffff 25 800] ------- [9:255 -1:255 29 0] [0x2 2 1 [23 0] [37 4]] (REQUEST)
r 1.121634480 _13_ RTR  --- 0 AODV 48 [0 ffffffff 12 800] ------- [18:255 -1:255 29 0] [0x2 2 1 [23 0] [37 4]] (REQUEST)
r 1.121634483 _23_ RTR  --- 0 AODV 48 [0 ffffffff 12 800] ------- [18:255 -1:255 29 0] [0x2 2 1 [23 0] [37 4]] (REQUEST)
r 1.121634543 _17_ RTR  --- 0 AODV 48 [0 ffffffff 12 800] ------- [18:255 -1:255 29 0] [0x2 2 1 [23 0] [37 4]] (REQUEST)
r 1.121634543 _19_ RTR  --- 0 AODV 48 [0 ffffffff 12 800] ------- [18:255 -1:255 29 0] [0x2 2 1 [23 0] [37 4]] (REQUEST)
r 1.121634573 _14_ RTR  --- 0 AODV 48 [0 ffffffff 12 800] ------- [18:255 -1:255 29 0] [0x2 2 1 [23 0] [37 4]] (REQUEST)
r 1.121634573 _12_ RTR  --- 0 AODV 48 [0 ffffffff 12 800] ------- [18:255 -1:255 29 0] [0x2 2 1 [23 0] [37 4]] (REQUEST)
r 1.121634575 _22_ RTR  --- 0 AODV 48 [0 ffffffff 12 800] ------- [18:255 -1:255 29 0] [0x2 2 1 [23 0] [37 4]] (REQUEST)
r 1.121634575 _24_ RTR  --- 0 AODV 48 [0 ffffffff 12 800] ------- [18:255 -1:255 29 0] [0x2 2 1 [23 0] [37 4]] (REQUEST)
r 1.121634583 _8_ RTR  --- 0 AODV 48 [0 ffffffff 12 800] ------- [18:255 -1:255 29 0] [0x2 2 1 [23 0] [37 4]] (REQUEST)
r 1.121634587 _28_ RTR  --- 0 AODV 48 [0 ffffffff 12 800] ------- [18:255 -1:255 29 0] [0x2 2 1 [23 0] [37 4]] (REQUEST)
r 1.121634642 _9_ RTR  --- 0 AODV 48 [0 ffffffff 12 800] ------- [18:255 -1:255 29 0] [0x2 2 1 [23 0] [37 4]] (REQUEST)
r 1.121634642 _7_ RTR  --- 0 AODV 48 [0 ffffffff 12 800] ------- [18:255 -1:255 29 0] [0x2 2 1 [23 0] [37 4]] (REQUEST)
r 1.121634645 _27_ RTR  --- 0 AODV 48 [0 ffffffff 12 800] ------- [18:255 -1:255 29 0] [0x2 2 1 [23 0] [37 4]] (REQUEST)
r 1.121634645 _29_ RTR  --- 0 AODV 48 [0 ffffffff 12 800] ------- [18:255 -1:255 29 0] [0x2 2 1 [23 0] [37 4]] (REQUEST)
r 1.121634687 _3_ RTR  --- 0 AODV 48 [0 ffffffff 12 800] ------- [18:255 -1:255 29 0] [0x2 2 1 [23 0] [37 4]] (REQUEST)
r 1.121634690 _33_ RTR  --- 0 AODV 48 [0 ffffffff 12 800] ------- [18:255 -1:255 29 0] [0x2 2 1 [23 0] [37 4]] (REQUEST)
r 1.121634710 _16_ RTR  --- 0 AODV 48 [0 ffffffff 12 800] ------- [18:255 -1:255 29 0] [0x2 2 1 [23 0] [37 4]] (REQUEST)
r 1.121634726 _11_ RTR  --- 0 AODV 48 [0 ffffffff 12 800] ------- [18:255 -1:255 29 0] [0x2 2 1 [23 0] [37 4]] (REQUEST)
r 1.121634727 _21_ RTR  --- 0 AODV 48 [0 ffffffff 12 800] ------- [18:255 -1:255 29 0] [0x2 2 1 [23 0] [37 4]] (REQUEST)
r 1.121634729 _4_ RTR  --- 0 AODV 48 [0 ffffffff 12 800] ------- [18:255 -1:255 29 0] [0x2 2 1 [23 0] [37 4]] (REQUEST)
r 1.121634729 _2_ RTR  --- 0 AODV 48 [0 ffffffff 12 800] ------- [18:255 -1:255 29 0] [0x2 2 1 [23 0] [37 4]] (REQUEST)
r 1.121634732 _32_ RTR  --- 0 AODV 48 [0 ffffffff 12 800] ------- [18:255 -1:255 29 0] [0x2 2 1 [23 0] [37 4]] (REQUEST)
r 1.121634732 _34_ RTR  --- 0 AODV 48 [0 ffffffff 12 800] ------- [18:255 -1:255 29 0] [0x2 2 1 [23 0] [37 4]] (REQUEST)
r 1.121634769 _6_ RTR  --- 0 AODV 48 [0 ffffffff 12 800] ------- [18:255 -1:255 29 0] [0x2 2 1 [23 0] [37 4]] (REQUEST)
r 1.121634771 _26_ RTR  --- 0 AODV 48 [0 ffffffff 12 800] ------- [18:255 -1:255 29 0] [0x2 2 1 [23 0] [37 4]] (REQUEST)
r 1.121634793 _38_ RTR  --- 0 AODV 48 [0 ffffffff 12 800] ------- [18:255 -1:255 29 0] [0x2 2 1 [23 0] [37 4]] (REQUEST)
r 1.121634825 _37_ RTR  --- 0 AODV 48 [0 ffffffff 12 800] ------- [18:255 -1:255 29 0] [0x2 2 1 [23 0] [37 4]] (REQUEST)
r 1.121634825 _39_ RTR  --- 0 AODV 48 [0 ffffffff 12 800] ------- [18:255 -1:255 29 0] [0x2 2 1 [23 0] [37 4]] (REQUEST)
r 1.121634832 _1_ RTR  --- 0 AODV 48 [0 ffffffff 12 800] ------- [18:255 -1:255 29 0] [0x2 2 1 [23 0] [37 4]] (REQUEST)
r 1.121634834 _31_ RTR  --- 0 AODV 48 [0 ffffffff 12 800] ------- [18:255 -1:255 29 0] [0x2 2 1 [23 0] [37 4]] (REQUEST)
r 1.121634877 _15_ RTR  --- 0 AODV 48 [0 ffffffff 12 800] ------- [18:255 -1:255 29 0] [0x2 2 1 [23 0] [37 4]] (REQUEST)
r 1.121634887 _10_ RTR  --- 0 AODV 48 [0 ffffffff 12 800] ------- [18:255 -1:255 29 0] [0x2 2 1 [23 0] [37 4]] (REQUEST)
r 1.121634888 _20_ RTR  --- 0 AODV 48 [0 ffffffff 12 800] ------- [18:255 -1:255 29 0] [0x2 2 1 [23 0] [37 4]] (REQUEST)
r 1.121634910 _36_ RTR  --- 0 AODV 48 [0 ffffffff 12 800] ------- [18:255 -1:255 29 0] [0x2 2 1 [23 0] [37 4]] (REQUEST)
r 1.121634918 _5_ RTR  --- 0 AODV 48 [0 ffffffff 12 800] ------- [18:255 -1:255 29 0] [0x2 2 1 [23 0] [37 4]] (REQUEST)
r 1.121634919 _25_ RTR  --- 0 AODV 48 [0 ffffffff 12 800] ------- [18:255 -1:255 29 0] [0x2 2 1 [23 0] [37 4]] (REQUEST)
r 1.121634965 _0_ RTR  --- 0 AODV 48 [0 ffffffff 12 800] ------- [18:255 -1:255 29 0] [0x2 2 1 [23 0] [37 4]] (REQUEST)
r 1.121634967 _30_ RTR  --- 0 AODV 48 [0 ffffffff 12 800] ------- [18:255 -1:255 29 0] [0x2 2 1 [23 0] [37 4]] (REQUEST)
r 1.121635027 _35_ RTR  --- 0 AODV 48 [0 ffffffff 12 800] ------- [18:255 -1:255 29 0] [0x2 2 1 [23 0] [37 4]] (REQUEST)
r 1.123945759 _7_ RTR  --- 0 AODV 48 [0 ffffffff 2 800] ------- [2:255 -1:255 29 0] [0x2 2 1 [23 0] [37 4]] (REQUEST)
r 1.123945823 _3_ RTR  --- 0 AODV 48 [0 ffffffff 2 800] ------- [2:255 -1:255 29 0] [0x2 2 1 [23 0] [37 4]] (REQUEST)
r 1.123945852 _8_ RTR  --- 0 AODV 48 [0 ffffffff 2 800] ------- [2:255 -1:255 29 0] [0x2 2 1 [23 0] [37 4]] (REQUEST)
r 1.123945922 _13_ RTR  --- 0 AODV 48 [0 ffffffff 2 800] ------- [2:255 -1:255 29 0] [0x2 2 1 [23 0] [37 4]] (REQUEST)
r 1.123945989 _4_ RTR  --- 0 AODV 48 [0 ffffffff 2 800] ------- [2:255 -1:255 29 0] [0x2 2 1 [23 0] [37 4]] (REQUEST)
r 1.123946005 _9_ RTR  --- 0 AODV 48 [0 ffffffff 2 800] ------- [2:255 -1:255 29 0] [0x2 2 1 [23 0] [37 4]] (REQUEST)
r 1.123964242 _0_ RTR  --- 0 AODV 48 [0 ffffffff 5 800] ------- [5:255 -1:255 29 0] [0x2 2 1 [23 0] [37 4]] (REQUEST)
r 1.123964242 _10_ RTR  --- 0 AODV 48 [0 ffffffff 5 800] ------- [5:255 -1:255 29 0] [0x2 2 1 [23 0] [37 4]] (REQUEST)
r 1.123964346 _15_ RTR  --- 0 AODV 48 [0 ffffffff 5 800] ------- [5:255 -1:255 29 0] [0x2 2 1 [23 0] [37 4]] (REQUEST)
r 1.126210123 _25_ RTR  --- 0 AODV 48 [0 ffffffff 14 800] ------- [20:255 -1:255 29 0] [0x2 2 1 [23 0] [37 4]] (REQUEST)
r 1.126210126 _15_ RTR  --- 0 AODV 48 [0 ffffffff 14 800] ------- [20:255 -1:255 29 0] [0x2 2 1 [23 0] [37 4]] (REQUEST)
r 1.126210218 _16_ RTR  --- 0 AODV 48 [0 ffffffff 14 800] ------- [20:255 -1:255 29 0] [0x2 2 1 [23 0] [37 4]] (REQUEST)
r 1.126210230 _10_ RTR  --- 0 AODV 48 [0 ffffffff 14 800] ------- [20:255 -1:255 29 0] [0x2 2 1 [23 0] [37 4]] (REQUEST)
r 1.126210288 _11_ RTR  --- 0 AODV 48 [0 ffffffff 14 800] ------- [20:255 -1:255 29 0] [0x2 2 1 [23 0] [37 4]] (REQUEST)
r 1.126210333 _5_ RTR  --- 0 AODV 48 [0 ffffffff 14 800] ------- [20:255 -1:255 29 0] [0x2 2 1 [23 0] [37 4]] (REQUEST)
r 1.126210375 _6_ RTR  --- 0 AODV 48 [0 ffffffff 14 800] ------- [20:255 -1:255 29 0] [0x2 2 1 [23 0] [37 4]] (REQUEST)
r 1.126210436 _0_ RTR  --- 0 AODV 48 [0 ffffffff 14 800] ------- [20:255 -1:255 29 0] [0x2 2 1 [23 0] [37 4]] (REQUEST)
s 1.126405439 _15_ AGT  --- 1 tcp 40 [0 0 0 0] ------- [15:0 34:0 32 0] [0 0] 0 0
r 1.126405439 _15_ RTR  --- 1 tcp 40 [0 0 0 0] ------- [15:0 34:0 32 0] [0 0] 0 0
s 1.126405439 _15_ RTR  --- 0 AODV 48 [0 0 0 0] ------- [15:255 -1:255 30 0] [0x2 1 1 [34 0] [15 4]] (REQUEST)
s 1.127838335 _18_ AGT  --- 2 tcp 40 [0 0 0 0] ------- [18:0 13:0 32 0] [0 0] 0 0
r 1.127838335 _18_ RTR  --- 2 tcp 40 [0 0 0 0] ------- [18:0 13:0 32 0] [0 0] 0 0
s 1.127838335 _18_ RTR  --- 0 AODV 48 [0 0 0 0] ------- [18:255 -1:255 30 0] [0x2 1 1 [13 0] [18 4]] (REQUEST)
r 1.128815081 _27_ RTR  --- 0 AODV 48 [0 ffffffff 20 800] ------- [32:255 -1:255 29 0] [0x2 2 1 [23 0] [37 4]] (REQUEST)
r 1.128815081 _37_ RTR  --- 0 AODV 48 [0 ffffffff 20 800] ------- [32:255 -1:255 29 0] [0x2 2 1 [23 0] [37 4]] (REQUEST)
r 1.128815144 _31_ RTR  --- 0 AODV 48 [0 ffffffff 20 800] ------- [32:255 -1:255 29 0] [0x2 2 1 [23 0] [37 4]] (REQUEST)
r 1.128815174 _26_ RTR  --- 0 AODV 48 [0 ffffffff 20 800] ------- [32:255 -1:255 29 0] [0x2 2 1 [23 0] [37 4]] (REQUEST)
r 1.128815174 _36_ RTR  --- 0 AODV 48 [0 ffffffff 20 800] ------- [32:255 -1:255 29 0] [0x2 2 1 [23 0] [37 4]] (REQUEST)
r 1.128815243 _21_ RTR  --- 0 AODV 48 [0 ffffffff 20 800] ------- [32:255 -1:255 29 0] [0x2 2 1 [23 0] [37 4]] (REQUEST)
r 1.128815311 _30_ RTR  --- 0 AODV 48 [0 ffffffff 20 800] ------- [32:255 -1:255 29 0] [0x2 2 1 [23 0] [37 4]] (REQUEST)
r 1.128815327 _25_ RTR  --- 0 AODV 48 [0 ffffffff 20 800] ------- [32:255 -1:255 29 0] [0x2 2 1 [23 0] [37 4]] (REQUEST)
r 1.128815327 _35_ RTR  --- 0 AODV 48 [0 ffffffff 20 800] ------- [32:255 -1:255 29 0] [0x2 2 1 [23 0] [37 4]] (REQUEST)
r 1.128815370 _20_ RTR  --- 0 AODV 48 [0 ffffffff 20 800] ------- [32:255 -1:255 29 0] [0x2 2 1 [23 0] [37 4]] (REQUEST)
r 1.128981668 _29_ RTR  --- 0 AODV 48 [0 ffffffff 22 800] ------- [34:255 -1:255 29 0] [0x2 2 1 [23 0] [37 4]] (REQUEST)
r 1.128981668 _39_ RTR  --- 0 AODV 48 [0 ffffffff 22 800] ------- [34:255 -1:255 29 0] [0x2 2 1 [23 0] [37 4]] (REQUEST)
r 1.131195198 _9_ RTR  --- 0 AODV 48 [0 ffffffff 4 800] ------- [4:255 -1:255 29 0] [0x2 2 1 [23 0] [37 4]] (REQUEST)
r 1.131195261 _3_ RTR  --- 0 AODV 48 [0 ffffffff 4 800] ------- [4:255 -1:255 29 0] [0x2 2 1 [23 0] [37 4]] (REQUEST)
r 1.131195291 _8_ RTR  --- 0 AODV 48 [0 ffffffff 4 800] ------- [4:255 -1:255 29 0] [0x2 2 1 [23 0] [37 4]] (REQUEST)
r 1.131195301 _14_ RTR  --- 0 AODV 48 [0 ffffffff 4 800] ------- [4:255 -1:255 29 0] [0x2 2 1 [23 0] [37 4]] (REQUEST)
r 1.131195360 _13_ RTR  --- 0 AODV 48 [0 ffffffff 4 800] ------- [4:255 -1:255 29 0] [0x2 2 1 [23 0] [37 4]] (REQUEST)
r 1.131195405 _19_ RTR  --- 0 AODV 48 [0 ffffffff 4 800] ------- [4:255 -1:255 29 0] [0x2 2 1 [23 0] [37 4]] (REQUEST)
r 1.131195511 _24_ RTR  --- 0 AODV 48 [0 ffffffff 4 800] ------- [4:255 -1:255 29 0] [0x2 2 1 [23 0] [37 4]] (REQUEST)
r 1.131208968 _5_ RTR  --- 0 AODV 48 [0 ffffffff 0 800] ------- [0:255 -1:255 29 0] [0x2 2 1 [23 0] [37 4]] (REQUEST)
r 1.131209032 _1_ RTR  --- 0 AODV 48 [0 ffffffff 0 800] ------- [0:255 -1:255 29 0] [0x2 2 1 [23 0] [37 4]] (REQUEST)
r 1.131209061 _6_ RTR  --- 0 AODV 48 [0 ffffffff 0 800] ------- [0:255 -1:255 29 0] [0x2 2 1 [23 0] [37 4]] (REQUEST)
r 1.131209072 _10_ RTR  --- 0 AODV 48 [0 ffffffff 0 800] ------- [0:255 -1:255 29 0] [0x2 2 1 [23 0] [37 4]] (REQUEST)
r 1.131209131 _11_ RTR  --- 0 AODV 48 [0 ffffffff 0 800] ------- [0:255 -1:255 29 0] [0x2 2 1 [23 0] [37 4]] (REQUEST)
r 1.131209175 _15_ RTR  --- 0 AODV 48 [0 ffffffff 0 800] ------- [0:255 -1:255 29 0] [0x2 2 1 [23 0] [37 4]] (REQUEST)
r 1.131209282 _20_ RTR  --- 0 AODV 48 [0 ffffffff 0 800] ------- [0:255 -1:255 29 0] [0x2 2 1 [23 0] [37 4]] (REQUEST)
r 1.133447243 _20_ RTR  --- 0 AODV 48 [0 ffffffff 19 800] ------- [25:255 -1:255 29 0] [0x2 2 1 [23 0] [37 4]] (REQUEST)
r 1.133447243 _30_ RTR  --- 0 AODV 48 [0 ffffffff 19 800] ------- [25:255 -1:255 29 0] [0x2 2 1 [23 0] [37 4]] (REQUEST)
r 1.133447306 _26_ RTR  --- 0 AODV 48 [0 ffffffff 19 800] ------- [25:255 -1:255 29 0] [0x2 2 1 [23 0] [37 4]] (REQUEST)
r 1.133447335 _21_ RTR  --- 0 AODV 48 [0 ffffffff 19 800] ------- [25:255 -1:255 29 0] [0x2 2 1 [23 0] [37 4]] (REQUEST)
r 1.133447335 _31_ RTR  --- 0 AODV 48 [0 ffffffff 19 800] ------- [25:255 -1:255 29 0] [0x2 2 1 [23 0] [37 4]] (REQUEST)
r 1.133447346 _35_ RTR  --- 0 AODV 48 [0 ffffffff 19 800] ------- [25:255 -1:255 29 0] [0x2 2 1 [23 0] [37 4]] (REQUEST)
r 1.133447349 _15_ RTR  --- 0 AODV 48 [0 ffffffff 19 800] ------- [25:255 -1:255 29 0] [0x2 2 1 [23 0] [37 4]] (REQUEST)
r 1.133447405 _36_ RTR  --- 0 AODV 48 [0 ffffffff 19 800] ------- [25:255 -1:255 29 0] [0x2 2 1 [23 0] [37 4]] (REQUEST)
r 1.133447407 _16_ RTR  --- 0 AODV 48 [0 ffffffff 19 800] ------- [25:255 -1:255 29 0] [0x2 2 1 [23 0] [37 4]] (REQUEST)
r 1.133447453 _10_ RTR  --- 0 AODV 48 [0 ffffffff 19 800] ------- [25:255 -1:255 29 0] [0x2 2 1 [23 0] [37 4]] (REQUEST)
r 1.133447473 _27_ RTR  --- 0 AODV 48 [0 ffffffff 19 800] ------- [25:255 -1:255 29 0] [0x2 2 1 [23 0] [37 4]] (REQUEST)
r 1.133447488 _22_ RTR  --- 0 AODV 48 [0 ffffffff 19 800] ------- [25:255 -1:255 29 0] [0x2 2 1 [23 0] [37 4]] (REQUEST)
r 1.133447488 _32_ RTR  --- 0 AODV 48 [0 ffffffff 19 800] ------- [25:255 -1:255 29 0] [0x2 2 1 [23 0] [37 4]] (REQUEST)
r 1.133447494 _11_ RTR  --- 0 AODV 48 [0 ffffffff 19 800] ------- [25:255 -1:255 29 0] [0x2 2 1 [23 0] [37 4]] (REQUEST)