s 1.106011134 _19_ AGT  --- 0 tcp 40 [0 0 0 0] ------- [19:1 29:1 32 0] [0 0] 0 0
r 1.106011134 _19_ RTR  --- 0 tcp 40 [0 0 0 0] ------- [19:1 29:1 32 0] [0 0] 0 0
s 1.106011134 _19_ RTR  --- 0 AODV 48 [0 0 0 0] ------- [19:255 -1:255 30 0] [0x2 1 1 [29 0] [19 4]] (REQUEST)
r 1.109933550 _14_ RTR  --- 0 AODV 48 [0 ffffffff 13 800] ------- [19:255 -1:255 30 0] [0x2 1 1 [29 0] [19 4]] (REQUEST)
r 1.109933550 _24_ RTR  --- 0 AODV 48 [0 ffffffff 13 800] ------- [19:255 -1:255 30 0] [0x2 1 1 [29 0] [19 4]] (REQUEST)
r 1.109933800 _18_ RTR  --- 0 AODV 48 [0 ffffffff 13 800] ------- [19:255 -1:255 30 0] [0x2 1 1 [29 0] [19 4]] (REQUEST)
r 1.109933920 _13_ RTR  --- 0 AODV 48 [0 ffffffff 13 800] ------- [19:255 -1:255 30 0] [0x2 1 1 [29 0] [19 4]] (REQUEST)
r 1.109933920 _23_ RTR  --- 0 AODV 48 [0 ffffffff 13 800] ------- [19:255 -1:255 30 0] [0x2 1 1 [29 0] [19 4]] (REQUEST)
r 1.109933967 _9_ RTR  --- 0 AODV 48 [0 ffffffff 13 800] ------- [19:255 -1:255 30 0] [0x2 1 1 [29 0] [19 4]] (REQUEST)
r 1.109933967 _29_ RTR  --- 0 AODV 48 [0 ffffffff 13 800] ------- [19:255 -1:255 30 0] [0x2 1 1 [29 0] [19 4]] (REQUEST)
s 1.109933967 _29_ RTR  --- 0 AODV 44 [0 0 0 0] ------- [29:255 19:255 30 19] [0x4 1 [29 4] 10.000000] (REPLY)
s 1.111519057 _23_ RTR  --- 0 AODV 48 [0 ffffffff 13 800] ------- [23:255 -1:255 29 0] [0x2 2 1 [29 0] [19 4]] (REQUEST)
s 1.112289374 _9_ RTR  --- 0 AODV 48 [0 ffffffff 13 800] ------- [9:255 -1:255 29 0] [0x2 2 1 [29 0] [19 4]] (REQUEST)
s 1.114781291 _14_ RTR  --- 0 AODV 48 [0 ffffffff 13 800] ------- [14:255 -1:255 29 0] [0x2 2 1 [29 0] [19 4]] (REQUEST)
r 1.115121474 _18_ RTR  --- 0 AODV 48 [0 ffffffff 17 800] ------- [23:255 -1:255 29 0] [0x2 2 1 [29 0] [19 4]] (REQUEST)
r 1.115121474 _28_ RTR  --- 0 AODV 48 [0 ffffffff 17 800] ------- [23:255 -1:255 29 0] [0x2 2 1 [29 0] [19 4]] (REQUEST)
r 1.115121724 _22_ RTR  --- 0 AODV 48 [0 ffffffff 17 800] ------- [23:255 -1:255 29 0] [0x2 2 1 [29 0] [19 4]] (REQUEST)
r 1.115121724 _24_ RTR  --- 0 AODV 48 [0 ffffffff 17 800] ------- [23:255 -1:255 29 0] [0x2 2 1 [29 0] [19 4]] (REQUEST)
r 1.115121843 _19_ RTR  --- 0 AODV 48 [0 ffffffff 17 800] ------- [23:255 -1:255 29 0] [0x2 2 1 [29 0] [19 4]] (REQUEST)
r 1.115121843 _17_ RTR  --- 0 AODV 48 [0 ffffffff 17 800] ------- [23:255 -1:255 29 0] [0x2 2 1 [29 0] [19 4]] (REQUEST)
r 1.115121843 _27_ RTR  --- 0 AODV 48 [0 ffffffff 17 800] ------- [23:255 -1:255 29 0] [0x2 2 1 [29 0] [19 4]] (REQUEST)
r 1.115121843 _29_ RTR  --- 0 AODV 48 [0 ffffffff 17 800] ------- [23:255 -1:255 29 0] [0x2 2 1 [29 0] [19 4]] (REQUEST)
r 1.115121890 _13_ RTR  --- 0 AODV 48 [0 ffffffff 17 800] ------- [23:255 -1:255 29 0] [0x2 2 1 [29 0] [19 4]] (REQUEST)
r 1.115121890 _33_ RTR  --- 0 AODV 48 [0 ffffffff 17 800] ------- [23:255 -1:255 29 0] [0x2 2 1 [29 0] [19 4]] (REQUEST)
s 1.115708703 _22_ RTR  --- 0 AODV 48 [0 ffffffff 17 800] ------- [22:255 -1:255 28 0] [0x2 3 1 [29 0] [19 4]] (REQUEST)
s 1.116162699 _18_ RTR  --- 0 AODV 48 [0 ffffffff 13 800] ------- [18:255 -1:255 29 0] [0x2 2 1 [29 0] [19 4]] (REQUEST)
r 1.117427790 _4_ RTR  --- 0 AODV 48 [0 ffffffff 9 800] ------- [9:255 -1:255 29 0] [0x2 2 1 [29 0] [19 4]] (REQUEST)
r 1.117428160 _3_ RTR  --- 0 AODV 48 [0 ffffffff 9 800] ------- [9:255 -1:255 29 0] [0x2 2 1 [29 0] [19 4]] (REQUEST)
s 1.118441748 _13_ RTR  --- 0 AODV 48 [0 ffffffff 13 800] ------- [13:255 -1:255 29 0] [0x2 2 1 [29 0] [19 4]] (REQUEST)
s 1.118521457 _17_ RTR  --- 0 AODV 48 [0 ffffffff 17 800] ------- [17:255 -1:255 28 0] [0x2 3 1 [29 0] [19 4]] (REQUEST)
s 1.118901559 _24_ RTR  --- 0 AODV 48 [0 ffffffff 13 800] ------- [24:255 -1:255 29 0] [0x2 2 1 [29 0] [19 4]] (REQUEST)
s 1.118946099 _3_ RTR  --- 0 AODV 48 [0 ffffffff 9 800] ------- [3:255 -1:255 28 0] [0x2 3 1 [29 0] [19 4]] (REQUEST)
r 1.120405116 _13_ RTR  --- 0 AODV 48 [0 ffffffff 12 800] ------- [18:255 -1:255 29 0] [0x2 2 1 [29 0] [19 4]] (REQUEST)
r 1.120405116 _23_ RTR  --- 0 AODV 48 [0 ffffffff 12 800] ------- [18:255 -1:255 29 0] [0x2 2 1 [29 0] [19 4]] (REQUEST)
r 1.120405366 _17_ RTR  --- 0 AODV 48 [0 ffffffff 12 800] ------- [18:255 -1:255 29 0] [0x2 2 1 [29 0] [19 4]] (REQUEST)
r 1.120405366 _19_ RTR  --- 0 AODV 48 [0 ffffffff 12 800] ------- [18:255 -1:255 29 0] [0x2 2 1 [29 0] [19 4]] (REQUEST)
r 1.120405485 _14_ RTR  --- 0 AODV 48 [0 ffffffff 12 800] ------- [18:255 -1:255 29 0] [0x2 2 1 [29 0] [19 4]] (REQUEST)
r 1.120405485 _12_ RTR  --- 0 AODV 48 [0 ffffffff 12 800] ------- [18:255 -1:255 29 0] [0x2 2 1 [29 0] [19 4]] (REQUEST)
r 1.120405485 _22_ RTR  --- 0 AODV 48 [0 ffffffff 12 800] ------- [18:255 -1:255 29 0] [0x2 2 1 [29 0] [19 4]] (REQUEST)
r 1.120405485 _24_ RTR  --- 0 AODV 48 [0 ffffffff 12 800] ------- [18:255 -1:255 29 0] [0x2 2 1 [29 0] [19 4]] (REQUEST)
r 1.120405532 _8_ RTR  --- 0 AODV 48 [0 ffffffff 12 800] ------- [18:255 -1:255 29 0] [0x2 2 1 [29 0] [19 4]] (REQUEST)
r 1.120405532 _28_ RTR  --- 0 AODV 48 [0 ffffffff 12 800] ------- [18:255 -1:255 29 0] [0x2 2 1 [29 0] [19 4]] (REQUEST)
s 1.121492685 _33_ RTR  --- 0 AODV 48 [0 ffffffff 17 800] ------- [33:255 -1:255 28 0] [0x2 3 1 [29 0] [19 4]] (REQUEST)
s 1.122464310 _12_ RTR  --- 0 AODV 48 [0 ffffffff 12 800] ------- [12:255 -1:255 28 0] [0x2 3 1 [29 0] [19 4]] (REQUEST)
r 1.122868515 _8_ RTR  --- 0 AODV 48 [0 ffffffff 3 800] ------- [3:255 -1:255 28 0] [0x2 3 1 [29 0] [19 4]] (REQUEST)
r 1.122868765 _2_ RTR  --- 0 AODV 48 [0 ffffffff 3 800] ------- [3:255 -1:255 28 0] [0x2 3 1 [29 0] [19 4]] (REQUEST)
r 1.122868765 _4_ RTR  --- 0 AODV 48 [0 ffffffff 3 800] ------- [3:255 -1:255 28 0] [0x2 3 1 [29 0] [19 4]] (REQUEST)
r 1.122868885 _9_ RTR  --- 0 AODV 48 [0 ffffffff 3 800] ------- [3:255 -1:255 28 0] [0x2 3 1 [29 0] [19 4]] (REQUEST)
r 1.122895119 _17_ RTR  --- 0 AODV 48 [0 ffffffff 16 800] ------- [22:255 -1:255 28 0] [0x2 3 1 [29 0] [19 4]] (REQUEST)
r 1.122895119 _27_ RTR  --- 0 AODV 48 [0 ffffffff 16 800] ------- [22:255 -1:255 28 0] [0x2 3 1 [29 0] [19 4]] (REQUEST)
r 1.122895369 _21_ RTR  --- 0 AODV 48 [0 ffffffff 16 800] ------- [22:255 -1:255 28 0] [0x2 3 1 [29 0] [19 4]] (REQUEST)
r 1.122895489 _16_ RTR  --- 0 AODV 48 [0 ffffffff 16 800] ------- [22:255 -1:255 28 0] [0x2 3 1 [29 0] [19 4]] (REQUEST)
r 1.122895489 _26_ RTR  --- 0 AODV 48 [0 ffffffff 16 800] ------- [22:255 -1:255 28 0] [0x2 3 1 [29 0] [19 4]] (REQUEST)
s 1.123062223 _27_ RTR  --- 0 AODV 48 [0 ffffffff 17 800] ------- [27:255 -1:255 28 0] [0x2 3 1 [29 0] [19 4]] (REQUEST)
s 1.123423887 _28_ RTR  --- 0 AODV 48 [0 ffffffff 17 800] ------- [28:255 -1:255 28 0] [0x2 3 1 [29 0] [19 4]] (REQUEST)
s 1.125516249 _2_ RTR  --- 0 AODV 48 [0 ffffffff 3 800] ------- [2:255 -1:255 27 0] [0x2 4 1 [29 0] [19 4]] (REQUEST)
r 1.125692164 _8_ RTR  --- 0 AODV 48 [0 ffffffff d 800] ------- [13:255 -1:255 29 0] [0x2 2 1 [29 0] [19 4]] (REQUEST)
r 1.125692414 _12_ RTR  --- 0 AODV 48 [0 ffffffff d 800] ------- [13:255 -1:255 29 0] [0x2 2 1 [29 0] [19 4]] (REQUEST)
r 1.125692534 _7_ RTR  --- 0 AODV 48 [0 ffffffff d 800] ------- [13:255 -1:255 29 0] [0x2 2 1 [29 0] [19 4]] (REQUEST)
s 1.126405439 _34_ AGT  --- 1 tcp 40 [0 0 0 0] ------- [34:0 12:0 32 0] [0 0] 0 0
r 1.126405439 _34_ RTR  --- 1 tcp 40 [0 0 0 0] ------- [34:0 12:0 32 0] [0 0] 0 0
s 1.126405439 _34_ RTR  --- 0 AODV 48 [0 0 0 0] ------- [34:255 -1:255 30 0] [0x2 1 1 [12 0] [34 4]] (REQUEST)
s 1.126484861 _4_ RTR  --- 0 AODV 48 [0 ffffffff 9 800] ------- [4:255 -1:255 28 0] [0x2 3 1 [29 0] [19 4]] (REQUEST)
s 1.126681742 _21_ RTR  --- 0 AODV 48 [0 ffffffff 16 800] ------- [21:255 -1:255 27 0] [0x2 4 1 [29 0] [19 4]] (REQUEST)
s 1.127159308 _8_ RTR  --- 0 AODV 48 [0 ffffffff 12 800] ------- [8:255 -1:255 28 0] [0x2 3 1 [29 0] [19 4]] (REQUEST)
s 1.127838335 _36_ AGT  --- 2 tcp 40 [0 0 0 0] ------- [36:0 12:1 32 0] [0 0] 0 0
r 1.127838335 _36_ RTR  --- 2 tcp 40 [0 0 0 0] ------- [36:0 12:1 32 0] [0 0] 0 0
s 1.127838335 _36_ RTR  --- 0 AODV 48 [0 0 0 0] ------- [36:255 -1:255 30 0] [0x2 1 1 [12 0] [36 4]] (REQUEST)
r 1.128103101 _28_ RTR  --- 0 AODV 48 [0 ffffffff 21 800] ------- [33:255 -1:255 28 0] [0x2 3 1 [29 0] [19 4]] (REQUEST)
r 1.128103101 _38_ RTR  --- 0 AODV 48 [0 ffffffff 21 800] ------- [33:255 -1:255 28 0] [0x2 3 1 [29 0] [19 4]] (REQUEST)
r 1.128103351 _32_ RTR  --- 0 AODV 48 [0 ffffffff 21 800] ------- [33:255 -1:255 28 0] [0x2 3 1 [29 0] [19 4]] (REQUEST)
r 1.128103351 _34_ RTR  --- 0 AODV 48 [0 ffffffff 21 800] ------- [33:255 -1:255 28 0] [0x2 3 1 [29 0] [19 4]] (REQUEST)
r 1.128103471 _37_ RTR  --- 0 AODV 48 [0 ffffffff 21 800] ------- [33:255 -1:255 28 0] [0x2 3 1 [29 0] [19 4]] (REQUEST)
r 1.128103471 _39_ RTR  --- 0 AODV 48 [0 ffffffff 21 800] ------- [33:255 -1:255 28 0] [0x2 3 1 [29 0] [19 4]] (REQUEST)
r 1.128114727 _7_ RTR  --- 0 AODV 48 [0 ffffffff c 800] ------- [12:255 -1:255 28 0] [0x2 3 1 [29 0] [19 4]] (REQUEST)
r 1.128114727 _17_ RTR  --- 0 AODV 48 [0 ffffffff c 800] ------- [12:255 -1:255 28 0] [0x2 3 1 [29 0] [19 4]] (REQUEST)
r 1.128114977 _11_ RTR  --- 0 AODV 48 [0 ffffffff c 800] ------- [12:255 -1:255 28 0] [0x2 3 1 [29 0] [19 4]] (REQUEST)
r 1.128115096 _6_ RTR  --- 0 AODV 48 [0 ffffffff c 800] ------- [12:255 -1:255 28 0] [0x2 3 1 [29 0] [19 4]] (REQUEST)
r 1.128115096 _16_ RTR  --- 0 AODV 48 [0 ffffffff c 800] ------- [12:255 -1:255 28 0] [0x2 3 1 [29 0] [19 4]] (REQUEST)
r 1.128115143 _2_ RTR  --- 0 AODV 48 [0 ffffffff c 800] ------- [12:255 -1:255 28 0] [0x2 3 1 [29 0] [19 4]] (REQUEST)
s 1.128314439 _6_ RTR  --- 0 AODV 48 [0 ffffffff c 800] ------- [6:255 -1:255 27 0] [0x2 4 1 [29 0] [19 4]] (REQUEST)
s 1.128863823 _38_ RTR  --- 0 AODV 48 [0 ffffffff 21 800] ------- [38:255 -1:255 27 0] [0x2 4 1 [29 0] [19 4]] (REQUEST)
s 1.129012771 _16_ RTR  --- 0 AODV 48 [0 ffffffff 16 800] ------- [16:255 -1:255 27 0] [0x2 4 1 [29 0] [19 4]] (REQUEST)
s 1.129449906 _26_ RTR  --- 0 AODV 48 [0 ffffffff 16 800] ------- [26:255 -1:255 27 0] [0x2 4 1 [29 0] [19 4]] (REQUEST)
s 1.129694863 _39_ RTR  --- 0 AODV 48 [0 ffffffff 21 800] ------- [39:255 -1:255 27 0] [0x2 4 1 [29 0] [19 4]] (REQUEST)
s 1.130217250 _32_ RTR  --- 0 AODV 48 [0 ffffffff 21 800] ------- [32:255 -1:255 27 0] [0x2 4 1 [29 0] [19 4]] (REQUEST)
r 1.130379873 _12_ RTR  --- 0 AODV 48 [0 ffffffff 11 800] ------- [17:255 -1:255 28 0] [0x2 3 1 [29 0] [19 4]] (REQUEST)
r 1.130379873 _22_ RTR  --- 0 AODV 48 [0 ffffffff 11 800] ------- [17:255 -1:255 28 0] [0x2 3 1 [29 0] [19 4]] (REQUEST)
r 1.130380123 _16_ RTR  --- 0 AODV 48 [0 ffffffff 11 800] ------- [17:255 -1:255 28 0] [0x2 3 1 [29 0] [19 4]] (REQUEST)
r 1.130380243 _11_ RTR  --- 0 AODV 48 [0 ffffffff 11 800] ------- [17:255 -1:255 28 0] [0x2 3 1 [29 0] [19 4]] (REQUEST)
r 1.130380243 _21_ RTR  --- 0 AODV 48 [0 ffffffff 11 800] ------- [17:255 -1:255 28 0] [0x2 3 1 [29 0] [19 4]] (REQUEST)
r 1.130380290 _27_ RTR  --- 0 AODV 48 [0 ffffffff 11 800] ------- [17:255 -1:255 28 0] [0x2 3 1 [29 0] [19 4]] (REQUEST)
r 1.130479708 _9_ RTR  --- 0 AODV 48 [0 ffffffff e 800] ------- [14:255 -1:255 29 0] [0x2 2 1 [29 0] [19 4]] (REQUEST)
r 1.130479708 _19_ RTR  --- 0 AODV 48 [0 ffffffff e 800] ------- [14:255 -1:255 29 0] [0x2 2 1 [29 0] [19 4]] (REQUEST)
r 1.130480124 _4_ RTR  --- 0 AODV 48 [0 ffffffff e 800] ------- [14:255 -1:255 29 0] [0x2 2 1 [29 0] [19 4]] (REQUEST)
s 1.130812532 _11_ RTR  --- 0 AODV 48 [0 ffffffff c 800] ------- [11:255 -1:255 27 0] [0x2 4 1 [29 0] [19 4]] (REQUEST)
r 1.132657279 _34_ RTR  --- 0 AODV 48 [0 ffffffff 27 800] ------- [39:255 -1:255 27 0] [0x2 4 1 [29 0] [19 4]] (REQUEST)
r 1.132657529 _38_ RTR  --- 0 AODV 48 [0 ffffffff 27 800] ------- [39:255 -1:255 27 0] [0x2 4 1 [29 0] [19 4]] (REQUEST)
r 1.132657649 _33_ RTR  --- 0 AODV 48 [0 ffffffff 27 800] ------- [39:255 -1:255 27 0] [0x2 4 1 [29 0] [19 4]] (REQUEST)
r 1.132657696 _29_ RTR  --- 0 AODV 48 [0 ffffffff 27 800] ------- [39:255 -1:255 27 0] [0x2 4 1 [29 0] [19 4]] (REQUEST)
s 1.132875938 _37_ RTR  --- 0 AODV 48 [0 ffffffff 21 800] ------- [37:255 -1:255 27 0] [0x2 4 1 [29 0] [19 4]] (REQUEST)
r 1.133255187 _21_ RTR  --- 0 AODV 48 [0 ffffffff 10 800] ------- [16:255 -1:255 27 0] [0x2 4 1 [29 0] [19 4]] (REQUEST)
r 1.133255557 _20_ RTR  --- 0 AODV 48 [0 ffffffff 10 800] ------- [16:255 -1:255 27 0] [0x2 4 1 [29 0] [19 4]] (REQUEST)
r 1.133255604 _26_ RTR  --- 0 AODV 48 [0 ffffffff 10 800] ------- [16:255 -1:255 27 0] [0x2 4 1 [29 0] [19 4]] (REQUEST)
r 1.133324856 _1_ RTR  --- 0 AODV 48 [0 ffffffff 6 800] ------- [6:255 -1:255 27 0] [0x2 4 1 [29 0] [19 4]] (REQUEST)
r 1.133325226 _2_ RTR  --- 0 AODV 48 [0 ffffffff 6 800] ------- [6:255 -1:255 27 0] [0x2 4 1 [29 0] [19 4]] (REQUEST)
r 1.133325226 _0_ RTR  --- 0 AODV 48 [0 ffffffff 6 800] ------- [6:255 -1:255 27 0] [0x2 4 1 [29 0] [19 4]] (REQUEST)
s 1.133914643 _7_ RTR  --- 0 AODV 48 [0 ffffffff d 800] ------- [7:255 -1:255 28 0] [0x2 3 1 [29 0] [19 4]] (REQUEST)
r 1.135655278 _9_ RTR  --- 0 AODV 48 [0 ffffffff 4 800] ------- [4:255 -1:255 28 0] [0x2 3 1 [29 0] [19 4]] (REQUEST)
r 1.135655528 _3_ RTR  --- 0 AODV 48 [0 ffffffff 4 800] ------- [4:255 -1:255 28 0] [0x2 3 1 [29 0] [19 4]] (REQUEST)
r 1.136048751 _31_ RTR  --- 0 AODV 48 [0 ffffffff 24 800] ------- [36:255 -1:255 30 0] [0x2 1 1 [12 0] [36 4]] (REQUEST)
r 1.136049001 _35_ RTR  --- 0 AODV 48 [0 ffffffff 24 800] ------- [36:255 -1:255 30 0] [0x2 1 1 [12 0] [36 4]] (REQUEST)
r 1.136049001 _37_ RTR  --- 0 AODV 48 [0 ffffffff 24 800] ------- [36:255 -1:255 30 0] [0x2 1 1 [12 0] [36 4]] (REQUEST)
r 1.136300159 _16_ RTR  --- 0 AODV 48 [0 ffffffff 15 800] ------- [21:255 -1:255 27 0] [0x2 4 1 [29 0] [19 4]] (REQUEST)
r 1.136300159 _26_ RTR  --- 0 AODV 48 [0 ffffffff 15 800] ------- [21:255 -1:255 27 0] [0x2 4 1 [29 0] [19 4]] (REQUEST)
r 1.136300409 _20_ RTR  --- 0 AODV 48 [0 ffffffff 15 800] ------- [21:255 -1:255 27 0] [0x2 4 1 [29 0] [19 4]] (REQUEST)
r 1.136300529 _15_ RTR  --- 0 AODV 48 [0 ffffffff 15 800] ------- [21:255 -1:255 27 0] [0x2 4 1 [29 0] [19 4]] (REQUEST)
r 1.136300576 _11_ RTR  --- 0 AODV 48 [0 ffffffff 15 800] ------- [21:255 -1:255 27 0] [0x2 4 1 [29 0] [19 4]] (REQUEST)
s 1.136486308 _34_ RTR  --- 0 AODV 48 [0 ffffffff 21 800] ------- [34:255 -1:255 27 0] [0x2 4 1 [29 0] [19 4]] (REQUEST)
s 1.136562111 _20_ RTR  --- 0 AODV 48 [0 ffffffff 10 800] ------- [20:255 -1:255 26 0] [0x2 5 1 [29 0] [19 4]] (REQUEST)
s 1.136700140 _37_ RTR  --- 0 AODV 48 [0 ffffffff 24 800] ------- [37:255 -1:255 29 0] [0x2 2 1 [12 0] [36 4]] (REQUEST)
s 1.137063584 _0_ RTR  --- 0 AODV 48 [0 ffffffff 6 800] ------- [0:255 -1:255 26 0] [0x2 5 1 [29 0] [19 4]] (REQUEST)
s 1.137077180 _1_ RTR  --- 0 AODV 48 [0 ffffffff 6 800] ------- [1:255 -1:255 26 0] [0x2 5 1 [29 0] [19 4]] (REQUEST)
r 1.138247976 _19_ RTR  --- 0 AODV 48 [0 ffffffff 18 800] ------- [24:255 -1:255 29 0] [0x2 2 1 [29 0] [19 4]] (REQUEST)
s 1.138735310 _35_ RTR  --- 0 AODV 48 [0 ffffffff 24 800] ------- [35:255 -1:255 29 0] [0x2 2 1 [12 0] [36 4]] (REQUEST)
s 1.139428485 _15_ RTR  --- 0 AODV 48 [0 ffffffff 15 800] ------- [15:255 -1:255 26 0] [0x2 5 1 [29 0] [19 4]] (REQUEST)
r 1.139708322 _21_ RTR  --- 0 AODV 48 [0 ffffffff 1a 800] ------- [26:255 -1:255 27 0] [0x2 4 1 [29 0] [19 4]] (REQUEST)
r 1.139708322 _31_ RTR  --- 0 AODV 48 [0 ffffffff 1a 800] ------- [26:255 -1:255 27 0] [0x2 4 1 [29 0] [19 4]] (REQUEST)
r 1.139708572 _25_ RTR  --- 0 AODV 48 [0 ffffffff 1a 800] ------- [26:255 -1:255 27 0] [0x2 4 1 [29 0] [19 4]] (REQUEST)
r 1.139708692 _20_ RTR  --- 0 AODV 48 [0 ffffffff 1a 800] ------- [26:255 -1:255 27 0] [0x2 4 1 [29 0] [19 4]] (REQUEST)
r 1.139708692 _30_ RTR  --- 0 AODV 48 [0 ffffffff 1a 800] ------- [26:255 -1:255 27 0] [0x2 4 1 [29 0] [19 4]] (REQUEST)
r 1.139708739 _36_ RTR  --- 0 AODV 48 [0 ffffffff 1a 800] ------- [26:255 -1:255 27 0] [0x2 4 1 [29 0] [19 4]] (REQUEST)
s 1.140056078 _30_ RTR  --- 0 AODV 48 [0 ffffffff 1a 800] ------- [30:255 -1:255 26 0] [0x2 5 1 [29 0] [19 4]] (REQUEST)
s 1.140364748 _36_ RTR  --- 0 AODV 48 [0 ffffffff 1a 800] ------- [36:255 -1:255 26 0] [0x2 5 1 [29 0] [19 4]] (REQUEST)
r 1.140574666 _7_ RTR  --- 0 AODV 48 [0 ffffffff 2 800] ------- [2:255 -1:255 27 0] [0x2 4 1 [29 0] [19 4]] (REQUEST)
r 1.140574916 _3_ RTR  --- 0 AODV 48 [0 ffffffff 2 800] ------- [2:255 -1:255 27 0] [0x2 4 1 [29 0] [19 4]] (REQUEST)
r 1.140575035 _8_ RTR  --- 0 AODV 48 [0 ffffffff 2 800] ------- [2:255 -1:255 27 0] [0x2 4 1 [29 0] [19 4]] (REQUEST)
r 1.140666000 _5_ RTR  --- 0 AODV 48 [0 ffffffff 0 800] ------- [0:255 -1:255 26 0] [0x2 5 1 [29 0] [19 4]] (REQUEST)
s 1.142221472 _25_ RTR  --- 0 AODV 48 [0 ffffffff 1a 800] ------- [25:255 -1:255 26 0] [0x2 5 1 [29 0] [19 4]] (REQUEST)
r 1.142515467 _19_ RTR  --- 0 AODV 44 [0 13 1d 800] ------- [29:255 19:255 30 19] [0x4 1 [29 4] 10.000000] (REPLY)
s 1.142515467 _19_ RTR  --- 0 tcp 40 [0 0 0 0] ------- [19:1 29:1 30 29] [0 0] 0 0
r 1.142990948 _6_ RTR  --- 0 AODV 48 [0 ffffffff b 800] ------- [11:255 -1:255 27 0] [0x2 4 1 [29 0] [19 4]] (REQUEST)
r 1.142990948 _16_ RTR  --- 0 AODV 48 [0 ffffffff b 800] ------- [11:255 -1:255 27 0] [0x2 4 1 [29 0] [19 4]] (REQUEST)
r 1.142991198 _10_ RTR  --- 0 AODV 48 [0 ffffffff b 800] ------- [11:255 -1:255 27 0] [0x2 4 1 [29 0] [19 4]] (REQUEST)
r 1.142991198 _12_ RTR  --- 0 AODV 48 [0 ffffffff b 800] ------- [11:255 -1:255 27 0] [0x2 4 1 [29 0] [19 4]] (REQUEST)
r 1.142991318 _7_ RTR  --- 0 AODV 48 [0 ffffffff b 800] ------- [11:255 -1:255 27 0] [0x2 4 1 [29 0] [19 4]] (REQUEST)
r 1.142991318 _5_ RTR  --- 0 AODV 48 [0 ffffffff b 800] ------- [11:255 -1:255 27 0] [0x2 4 1 [29 0] [19 4]] (REQUEST)
r 1.142991318 _15_ RTR  --- 0 AODV 48 [0 ffffffff b 800] ------- [11:255 -1:255 27 0] [0x2 4 1 [29 0] [19 4]] (REQUEST)
r 1.142991365 _1_ RTR  --- 0 AODV 48 [0 ffffffff b 800] ------- [11:255 -1:255 27 0] [0x2 4 1 [29 0] [19 4]] (REQUEST)
r 1.143297726 _30_ RTR  --- 0 AODV 48 [0 ffffffff 23 800] ------- [35:255 -1:255 29 0] [0x2 2 1 [12 0] [36 4]] (REQUEST)
r 1.143297976 _36_ RTR  --- 0 AODV 48 [0 ffffffff 23 800] ------- [35:255 -1:255 29 0] [0x2 2 1 [12 0] [36 4]] (REQUEST)
r 1.143298096 _31_ RTR  --- 0 AODV 48 [0 ffffffff 23 800] ------- [35:255 -1:255 29 0] [0x2 2 1 [12 0] [36 4]] (REQUEST)
s 1.145286714 _31_ RTR  --- 0 AODV 48 [0 ffffffff 24 800] ------- [31:255 -1:255 29 0] [0x2 2 1 [12 0] [36 4]] (REQUEST)
s 1.145455875 _31_ RTR  --- 0 AODV 48 [0 ffffffff 1a 800] ------- [31:255 -1:255 26 0] [0x2 5 1 [29 0] [19 4]] (REQUEST)
s 1.145485660 _5_ RTR  --- 0 AODV 48 [0 ffffffff 0 800] ------- [5:255 -1:255 25 0] [0x2 6 1 [29 0] [19 4]] (REQUEST)
s 1.145568735 _10_ RTR  --- 0 AODV 48 [0 ffffffff b 800] ------- [10:255 -1:255 26 0] [0x2 5 1 [29 0] [19 4]] (REQUEST)
r 1.146143889 _20_ RTR  --- 0 AODV 48 [0 ffffffff 19 800] ------- [25:255 -1:255 26 0] [0x2 5 1 [29 0] [19 4]] (REQUEST)
r 1.146143889 _30_ RTR  --- 0 AODV 48 [0 ffffffff 19 800] ------- [25:255 -1:255 26 0] [0x2 5 1 [29 0] [19 4]] (REQUEST)
r 1.146144139 _26_ RTR  --- 0 AODV 48 [0 ffffffff 19 800] ------- [25:255 -1:255 26 0] [0x2 5 1 [29 0] [19 4]] (REQUEST)
r 1.146144259 _21_ RTR  --- 0 AODV 48 [0 ffffffff 19 800] ------- [25:255 -1:255 26 0] [0x2 5 1 [29 0] [19 4]] (REQUEST)
r 1.146144259 _31_ RTR  --- 0 AODV 48 [0 ffffffff 19 800] ------- [25:255 -1:255 26 0] [0x2 5 1 [29 0] [19 4]] (REQUEST)
r 1.146144306 _35_ RTR  --- 0 AODV 48 [0 ffffffff 19 800] ------- [25:255 -1:255 26 0] [0x2 5 1 [29 0] [19 4]] (REQUEST)
r 1.146503597 _6_ RTR  --- 0 AODV 48 [0 ffffffff 1 800] ------- [1:255 -1:255 26 0] [0x2 5 1 [29 0] [19 4]] (REQUEST)
r 1.146503847 _0_ RTR  --- 0 AODV 48 [0 ffffffff 1 800] ------- [1:255 -1:255 26 0] [0x2 5 1 [29 0] [19 4]] (REQUEST)
r 1.146503847 _2_ RTR  --- 0 AODV 48 [0 ffffffff 1 800] ------- [1:255 -1:255 26 0] [0x2 5 1 [29 0] [19 4]] (REQUEST)
r 1.146503966 _5_ RTR  --- 0 AODV 48 [0 ffffffff 1 800] ------- [1:255 -1:255 26 0] [0x2 5 1 [29 0] [19 4]] (REQUEST)
r 1.146503966 _7_ RTR  --- 0 AODV 48 [0 ffffffff 1 800] ------- [1:255 -1:255 26 0] [0x2 5 1 [29 0] [19 4]] (REQUEST)
s 1.147020165 _30_ RTR  --- 0 AODV 48 [0 ffffffff 23 800] ------- [30:255 -1:255 28 0] [0x2 3 1 [12 0] [36 4]] (REQUEST)
r 1.148439856 _29_ RTR  --- 0 AODV 48 [0 ffffffff 22 800] ------- [34:255 -1:255 30 0] [0x2 1 1 [12 0] [34 4]] (REQUEST)
r 1.148439856 _39_ RTR  --- 0 AODV 48 [0 ffffffff 22 800] ------- [34:255 -1:255 30 0] [0x2 1 1 [12 0] [34 4]] (REQUEST)
r 1.148889130 _26_ RTR  --- 0 AODV 48 [0 ffffffff 1f 800] ------- [31:255 -1:255 29 0] [0x2 2 1 [12 0] [36 4]] (REQUEST)
r 1.149046901 _20_ RTR  --- 0 AODV 48 [0 ffffffff f 800] ------- [15:255 -1:255 26 0] [0x2 5 1 [29 0] [19 4]] (REQUEST)
r 1.149088077 _0_ RTR  --- 0 AODV 48 [0 ffffffff 5 800] ------- [5:255 -1:255 25 0] [0x2 6 1 [29 0] [19 4]] (REQUEST)
r 1.149088446 _1_ RTR  --- 0 AODV 48 [0 ffffffff 5 800] ------- [5:255 -1:255 25 0] [0x2 6 1 [29 0] [19 4]] (REQUEST)
s 1.150573125 _35_ RTR  --- 0 AODV 48 [0 ffffffff 19 800] ------- [35:255 -1:255 25 0] [0x2 6 1 [29 0] [19 4]] (REQUEST)
s 1.152061633 _39_ RTR  --- 0 AODV 48 [0 ffffffff 22 800] ------- [39:255 -1:255 29 0] [0x2 2 1 [12 0] [34 4]] (REQUEST)
r 1.152311856 _29_ RTR  --- 0 AODV 48 [0 ffffffff 22 800] ------- [34:255 -1:255 27 0] [0x2 4 1 [29 0] [19 4]] (REQUEST)
r 1.152311856 _39_ RTR  --- 0 AODV 48 [0 ffffffff 22 800] ------- [34:255 -1:255 27 0] [0x2 4 1 [29 0] [19 4]] (REQUEST)
r 1.152312106 _33_ RTR  --- 0 AODV 48 [0 ffffffff 22 800] ------- [34:255 -1:255 27 0] [0x2 4 1 [29 0] [19 4]] (REQUEST)
r 1.152312273 _24_ RTR  --- 0 AODV 48 [0 ffffffff 22 800] ------- [34:255 -1:255 27 0] [0x2 4 1 [29 0] [19 4]] (REQUEST)
r 1.152569130 _26_ RTR  --- 0 AODV 48 [0 ffffffff 1f 800] ------- [31:255 -1:255 26 0] [0x2 5 1 [29 0] [19 4]] (REQUEST)
r 1.152569130 _36_ RTR  --- 0 AODV 48 [0 ffffffff 1f 800] ------- [31:255 -1:255 26 0] [0x2 5 1 [29 0] [19 4]] (REQUEST)
r 1.152569380 _30_ RTR  --- 0 AODV 48 [0 ffffffff 1f 800] ------- [31:255 -1:255 26 0] [0x2 5 1 [29 0] [19 4]] (REQUEST)
r 1.152569380 _32_ RTR  --- 0 AODV 48 [0 ffffffff 1f 800] ------- [31:255 -1:255 26 0] [0x2 5 1 [29 0] [19 4]] (REQUEST)
r 1.152569500 _25_ RTR  --- 0 AODV 48 [0 ffffffff 1f 800] ------- [31:255 -1:255 26 0] [0x2 5 1 [29 0] [19 4]] (REQUEST)
r 1.152569500 _35_ RTR  --- 0 AODV 48 [0 ffffffff 1f 800] ------- [31:255 -1:255 26 0] [0x2 5 1 [29 0] [19 4]] (REQUEST)
r 1.152569547 _21_ RTR  --- 0 AODV 48 [0 ffffffff 1f 800] ------- [31:255 -1:255 26 0] [0x2 5 1 [29 0] [19 4]] (REQUEST)
r 1.154815542 _30_ RTR  --- 0 AODV 48 [0 ffffffff 23 800] ------- [35:255 -1:255 25 0] [0x2 6 1 [29 0] [19 4]] (REQUEST)
r 1.154815792 _36_ RTR  --- 0 AODV 48 [0 ffffffff 23 800] ------- [35:255 -1:255 25 0] [0x2 6 1 [29 0] [19 4]] (REQUEST)
r 1.154815912 _31_ RTR  --- 0 AODV 48 [0 ffffffff 23 800] ------- [35:255 -1:255 25 0] [0x2 6 1 [29 0] [19 4]] (REQUEST)
r 1.154867152 _5_ RTR  --- 0 AODV 48 [0 ffffffff a 800] ------- [10:255 -1:255 26 0] [0x2 5 1 [29 0] [19 4]] (REQUEST)
r 1.154867152 _15_ RTR  --- 0 AODV 48 [0 ffffffff a 800] ------- [10:255 -1:255 26 0] [0x2 5 1 [29 0] [19 4]] (REQUEST)
r 1.154867402 _11_ RTR  --- 0 AODV 48 [0 ffffffff a 800] ------- [10:255 -1:255 26 0] [0x2 5 1 [29 0] [19 4]] (REQUEST)
r 1.154867521 _6_ RTR  --- 0 AODV 48 [0 ffffffff a 800] ------- [10:255 -1:255 26 0] [0x2 5 1 [29 0] [19 4]] (REQUEST)
r 1.154867521 _16_ RTR  --- 0 AODV 48 [0 ffffffff a 800] ------- [10:255 -1:255 26 0] [0x2 5 1 [29 0] [19 4]] (REQUEST)
r 1.154867568 _0_ RTR  --- 0 AODV 48 [0 ffffffff a 800] ------- [10:255 -1:255 26 0] [0x2 5 1 [29 0] [19 4]] (REQUEST)
s 1.154984990 _26_ RTR  --- 0 AODV 48 [0 ffffffff 1f 800] ------- [26:255 -1:255 28 0] [0x2 3 1 [12 0] [36 4]] (REQUEST)
r 1.155024049 _34_ RTR  --- 0 AODV 48 [0 ffffffff 27 800] ------- [39:255 -1:255 29 0] [0x2 2 1 [12 0] [34 4]] (REQUEST)
r 1.155024299 _38_ RTR  --- 0 AODV 48 [0 ffffffff 27 800] ------- [39:255 -1:255 29 0] [0x2 2 1 [12 0] [34 4]] (REQUEST)
r 1.155024419 _33_ RTR  --- 0 AODV 48 [0 ffffffff 27 800] ------- [39:255 -1:255 29 0] [0x2 2 1 [12 0] [34 4]] (REQUEST)
r 1.155024466 _29_ RTR  --- 0 AODV 48 [0 ffffffff 27 800] ------- [39:255 -1:255 29 0] [0x2 2 1 [12 0] [34 4]] (REQUEST)
s 1.155878776 _33_ RTR  --- 0 AODV 48 [0 ffffffff 27 800] ------- [33:255 -1:255 28 0] [0x2 3 1 [12 0] [34 4]] (REQUEST)
r 1.157508528 _15_ RTR  --- 0 AODV 48 [0 ffffffff 14 800] ------- [20:255 -1:255 26 0] [0x2 5 1 [29 0] [19 4]] (REQUEST)
r 1.157508528 _25_ RTR  --- 0 AODV 48 [0 ffffffff 14 800] ------- [20:255 -1:255 26 0] [0x2 5 1 [29 0] [19 4]] (REQUEST)
r 1.157508778 _21_ RTR  --- 0 AODV 48 [0 ffffffff 14 800] ------- [20:255 -1:255 26 0] [0x2 5 1 [29 0] [19 4]] (REQUEST)
r 1.157508898 _16_ RTR  --- 0 AODV 48 [0 ffffffff 14 800] ------- [20:255 -1:255 26 0] [0x2 5 1 [29 0] [19 4]] (REQUEST)
r 1.157508898 _26_ RTR  --- 0 AODV 48 [0 ffffffff 14 800] ------- [20:255 -1:255 26 0] [0x2 5 1 [29 0] [19 4]] (REQUEST)
r 1.157508945 _10_ RTR  --- 0 AODV 48 [0 ffffffff 14 800] ------- [20:255 -1:255 26 0] [0x2 5 1 [29 0] [19 4]] (REQUEST)
r 1.157508945 _30_ RTR  --- 0 AODV 48 [0 ffffffff 14 800] ------- [20:255 -1:255 26 0] [0x2 5 1 [29 0] [19 4]] (REQUEST)
r 1.158261967 _29_ AGT  --- 0 tcp 40 [0 1d 13 800] ------- [19:1 29:1 30 29] [0 0] 1 0
s 1.158261967 _29_ AGT  --- 3 ack 40 [0 0 0 0] ------- [29:1 19:1 32 0] [0 0] 0 0
r 1.158261967 _29_ RTR  --- 3 ack 40 [0 0 0 0] ------- [29:1 19:1 32 0] [0 0] 0 0
s 1.158261967 _29_ RTR  --- 3 ack 40 [0 0 0 0] ------- [29:1 19:1 30 19] [0 0] 0 0
s 1.158301870 _29_ RTR  --- 0 AODV 48 [0 ffffffff 22 800] ------- [29:255 -1:255 29 0] [0x2 2 1 [12 0] [34 4]] (REQUEST)
s 1.159629419 _38_ RTR  --- 0 AODV 48 [0 ffffffff 27 800] ------- [38:255 -1:255 28 0] [0x2 3 1 [12 0] [34 4]] (REQUEST)
r 1.159902355 _32_ RTR  --- 0 AODV 48 [0 ffffffff 25 800] ------- [37:255 -1:255 29 0] [0x2 2 1 [12 0] [36 4]] (REQUEST)
r 1.159902605 _36_ RTR  --- 0 AODV 48 [0 ffffffff 25 800] ------- [37:255 -1:255 29 0] [0x2 2 1 [12 0] [36 4]] (REQUEST)
r 1.159902724 _31_ RTR  --- 0 AODV 48 [0 ffffffff 25 800] ------- [37:255 -1:255 29 0] [0x2 2 1 [12 0] [36 4]] (REQUEST)
r 1.161709060 _2_ RTR  --- 0 AODV 48 [0 ffffffff 7 800] ------- [7:255 -1:255 28 0] [0x2 3 1 [29 0] [19 4]] (REQUEST)
r 1.161709060 _12_ RTR  --- 0 AODV 48 [0 ffffffff 7 800] ------- [7:255 -1:255 28 0] [0x2 3 1 [29 0] [19 4]] (REQUEST)
r 1.161709310 _6_ RTR  --- 0 AODV 48 [0 ffffffff 7 800] ------- [7:255 -1:255 28 0] [0x2 3 1 [29 0] [19 4]] (REQUEST)
r 1.161709310 _8_ RTR  --- 0 AODV 48 [0 ffffffff 7 800] ------- [7:255 -1:255 28 0] [0x2 3 1 [29 0] [19 4]] (REQUEST)
r 1.161709429 _3_ RTR  --- 0 AODV 48 [0 ffffffff 7 800] ------- [7:255 -1:255 28 0] [0x2 3 1 [29 0] [19 4]] (REQUEST)
r 1.161709429 _1_ RTR  --- 0 AODV 48 [0 ffffffff 7 800] ------- [7:255 -1:255 28 0] [0x2 3 1 [29 0] [19 4]] (REQUEST)
r 1.161709429 _11_ RTR  --- 0 AODV 48 [0 ffffffff 7 800] ------- [7:255 -1:255 28 0] [0x2 3 1 [29 0] [19 4]] (REQUEST)
r 1.161709429 _13_ RTR  --- 0 AODV 48 [0 ffffffff 7 800] ------- [7:255 -1:255 28 0] [0x2 3 1 [29 0] [19 4]] (REQUEST)
r 1.161709476 _17_ RTR  --- 0 AODV 48 [0 ffffffff 7 800] ------- [7:255 -1:255 28 0] [0x2 3 1 [29 0] [19 4]] (REQUEST)
r 1.163432800 _19_ AGT  --- 3 ack 40 [0 13 1d 800] ------- [29:1 19:1 30 19] [0 0] 1 0
s 1.163432800 _19_ AGT  --- 4 tcp 1040 [0 0 0 0] ------- [19:1 29:1 32 0] [1 0] 0 0
r 1.163432800 _19_ RTR  --- 4 tcp 1040 [0 0 0 0] ------- [19:1 29:1 32 0] [1 0] 0 0
s 1.163432800 _19_ RTR  --- 4 tcp 1040 [0 0 0 0] ------- [19:1 29:1 30 29] [1 0] 0 0
s 1.166807646 _32_ RTR  --- 0 AODV 48 [0 ffffffff 25 800] ------- [32:255 -1:255 28 0] [0x2 3 1 [12 0] [36 4]] (REQUEST)
r 1.166843407 _21_ RTR  --- 0 AODV 48 [0 ffffffff 1a 800] ------- [26:255 -1:255 28 0] [0x2 3 1 [12 0] [36 4]] (REQUEST)
r 1.166843407 _31_ RTR  --- 0 AODV 48 [0 ffffffff 1a 800] ------- [26:255 -1:255 28 0] [0x2 3 1 [12 0] [36 4]] (REQUEST)
r 1.166843657 _25_ RTR  --- 0 AODV 48 [0 ffffffff 1a 800] ------- [26:255 -1:255 28 0] [0x2 3 1 [12 0] [36 4]] (REQUEST)
r 1.166843657 _27_ RTR  --- 0 AODV 48 [0 ffffffff 1a 800] ------- [26:255 -1:255 28 0] [0x2 3 1 [12 0] [36 4]] (REQUEST)
r 1.166843776 _20_ RTR  --- 0 AODV 48 [0 ffffffff 1a 800] ------- [26:255 -1:255 28 0] [0x2 3 1 [12 0] [36 4]] (REQUEST)
r 1.166843776 _30_ RTR  --- 0 AODV 48 [0 ffffffff 1a 800] ------- [26:255 -1:255 28 0] [0x2 3 1 [12 0] [36 4]] (REQUEST)
r 1.166843823 _16_ RTR  --- 0 AODV 48 [0 ffffffff 1a 800] ------- [26:255 -1:255 28 0] [0x2 3 1 [12 0] [36 4]] (REQUEST)
r 1.166843823 _36_ RTR  --- 0 AODV 48 [0 ffffffff 1a 800] ------- [26:255 -1:255 28 0] [0x2 3 1 [12 0] [36 4]] (REQUEST)
r 1.166986050 _24_ RTR  --- 0 AODV 48 [0 ffffffff 1d 800] ------- [29:255 -1:255 29 0] [0x2 2 1 [12 0] [34 4]] (REQUEST)
r 1.166986050 _34_ RTR  --- 0 AODV 48 [0 ffffffff 1d 800] ------- [29:255 -1:255 29 0] [0x2 2 1 [12 0] [34 4]] (REQUEST)
r 1.166986300 _28_ RTR  --- 0 AODV 48 [0 ffffffff 1d 800] ------- [29:255 -1:255 29 0] [0x2 2 1 [12 0] [34 4]] (REQUEST)
r 1.166986467 _19_ RTR  --- 0 AODV 48 [0 ffffffff 1d 800] ------- [29:255 -1:255 29 0] [0x2 2 1 [12 0] [34 4]] (REQUEST)
r 1.166986467 _39_ RTR  --- 0 AODV 48 [0 ffffffff 1d 800] ------- [29:255 -1:255 29 0] [0x2 2 1 [12 0] [34 4]] (REQUEST)
s 1.168140530 _21_ RTR  --- 0 AODV 48 [0 ffffffff 1a 800] ------- [21:255 -1:255 27 0] [0x2 4 1 [12 0] [36 4]] (REQUEST)
s 1.168231626 _28_ RTR  --- 0 AODV 48 [0 ffffffff 1d 800] ------- [28:255 -1:255 28 0] [0x2 3 1 [12 0] [34 4]] (REQUEST)
r 1.171194043 _23_ RTR  --- 0 AODV 48 [0 ffffffff 1c 800] ------- [28:255 -1:255 28 0] [0x2 3 1 [12 0] [34 4]] (REQUEST)
r 1.171194043 _33_ RTR  --- 0 AODV 48 [0 ffffffff 1c 800] ------- [28:255 -1:255 28 0] [0x2 3 1 [12 0] [34 4]] (REQUEST)
r 1.171194293 _27_ RTR  --- 0 AODV 48 [0 ffffffff 1c 800] ------- [28:255 -1:255 28 0] [0x2 3 1 [12 0] [34 4]] (REQUEST)
r 1.171194293 _29_ RTR  --- 0 AODV 48 [0 ffffffff 1c 800] ------- [28:255 -1:255 28 0] [0x2 3 1 [12 0] [34 4]] (REQUEST)
r 1.171194413 _24_ RTR  --- 0 AODV 48 [0 ffffffff 1c 800] ------- [28:255 -1:255 28 0] [0x2 3 1 [12 0] [34 4]] (REQUEST)
r 1.171194413 _22_ RTR  --- 0 AODV 48 [0 ffffffff 1c 800] ------- [28:255 -1:255 28 0] [0x2 3 1 [12 0] [34 4]] (REQUEST)
r 1.171194413 _32_ RTR  --- 0 AODV 48 [0 ffffffff 1c 800] ------- [28:255 -1:255 28 0] [0x2 3 1 [12 0] [34 4]] (REQUEST)