s 1.106011134 _3_ AGT  --- 0 tcp 40 [0 0 0 0] ------- [3:0 17:0 32 0] [0 0] 0 0
r 1.106011134 _3_ RTR  --- 0 tcp 40 [0 0 0 0] ------- [3:0 17:0 32 0] [0 0] 0 0
s 1.106011134 _3_ RTR  --- 0 AODV 48 [0 0 0 0] ------- [3:255 -1:255 30 0] [0x2 1 1 [17 0] [3 4]] (REQUEST)
r 1.109933340 _8_ RTR  --- 0 AODV 48 [0 ffffffff 3 800] ------- [3:255 -1:255 30 0] [0x2 1 1 [17 0] [3 4]] (REQUEST)
r 1.109933467 _2_ RTR  --- 0 AODV 48 [0 ffffffff 3 800] ------- [3:255 -1:255 30 0] [0x2 1 1 [17 0] [3 4]] (REQUEST)
r 1.109933467 _4_ RTR  --- 0 AODV 48 [0 ffffffff 3 800] ------- [3:255 -1:255 30 0] [0x2 1 1 [17 0] [3 4]] (REQUEST)
r 1.109933526 _7_ RTR  --- 0 AODV 48 [0 ffffffff 3 800] ------- [3:255 -1:255 30 0] [0x2 1 1 [17 0] [3 4]] (REQUEST)
r 1.109933526 _9_ RTR  --- 0 AODV 48 [0 ffffffff 3 800] ------- [3:255 -1:255 30 0] [0x2 1 1 [17 0] [3 4]] (REQUEST)
r 1.109933550 _13_ RTR  --- 0 AODV 48 [0 ffffffff 3 800] ------- [3:255 -1:255 30 0] [0x2 1 1 [17 0] [3 4]] (REQUEST)
r 1.109933667 _12_ RTR  --- 0 AODV 48 [0 ffffffff 3 800] ------- [3:255 -1:255 30 0] [0x2 1 1 [17 0] [3 4]] (REQUEST)
r 1.109933667 _14_ RTR  --- 0 AODV 48 [0 ffffffff 3 800] ------- [3:255 -1:255 30 0] [0x2 1 1 [17 0] [3 4]] (REQUEST)
r 1.109933757 _18_ RTR  --- 0 AODV 48 [0 ffffffff 3 800] ------- [3:255 -1:255 30 0] [0x2 1 1 [17 0] [3 4]] (REQUEST)
r 1.109933800 _1_ RTR  --- 0 AODV 48 [0 ffffffff 3 800] ------- [3:255 -1:255 30 0] [0x2 1 1 [17 0] [3 4]] (REQUEST)
r 1.109933832 _6_ RTR  --- 0 AODV 48 [0 ffffffff 3 800] ------- [3:255 -1:255 30 0] [0x2 1 1 [17 0] [3 4]] (REQUEST)
r 1.109933840 _17_ RTR  --- 0 AODV 48 [0 ffffffff 3 800] ------- [3:255 -1:255 30 0] [0x2 1 1 [17 0] [3 4]] (REQUEST)
r 1.109933840 _19_ RTR  --- 0 AODV 48 [0 ffffffff 3 800] ------- [3:255 -1:255 30 0] [0x2 1 1 [17 0] [3 4]] (REQUEST)
s 1.109933840 _17_ RTR  --- 0 AODV 44 [0 0 0 0] ------- [17:255 3:255 30 3] [0x4 1 [17 4] 10.000000] (REPLY)
r 1.109933920 _11_ RTR  --- 0 AODV 48 [0 ffffffff 3 800] ------- [3:255 -1:255 30 0] [0x2 1 1 [17 0] [3 4]] (REQUEST)
r 1.109933967 _23_ RTR  --- 0 AODV 48 [0 ffffffff 3 800] ------- [3:255 -1:255 30 0] [0x2 1 1 [17 0] [3 4]] (REQUEST)
s 1.110328836 _1_ RTR  --- 0 AODV 48 [0 ffffffff 3 800] ------- [1:255 -1:255 29 0] [0x2 2 1 [17 0] [3 4]] (REQUEST)
s 1.110578557 _12_ RTR  --- 0 AODV 48 [0 ffffffff 3 800] ------- [12:255 -1:255 29 0] [0x2 2 1 [17 0] [3 4]] (REQUEST)
s 1.111518663 _9_ RTR  --- 0 AODV 48 [0 ffffffff 3 800] ------- [9:255 -1:255 29 0] [0x2 2 1 [17 0] [3 4]] (REQUEST)
s 1.111700515 _14_ RTR  --- 0 AODV 48 [0 ffffffff 3 800] ------- [14:255 -1:255 29 0] [0x2 2 1 [17 0] [3 4]] (REQUEST)
s 1.112202227 _11_ RTR  --- 0 AODV 48 [0 ffffffff 3 800] ------- [11:255 -1:255 29 0] [0x2 2 1 [17 0] [3 4]] (REQUEST)
s 1.112288957 _13_ RTR  --- 0 AODV 48 [0 ffffffff 3 800] ------- [13:255 -1:255 29 0] [0x2 2 1 [17 0] [3 4]] (REQUEST)
s 1.114781081 _8_ RTR  --- 0 AODV 48 [0 ffffffff 3 800] ------- [8:255 -1:255 29 0] [0x2 2 1 [17 0] [3 4]] (REQUEST)
s 1.115718844 _6_ RTR  --- 0 AODV 48 [0 ffffffff 3 800] ------- [6:255 -1:255 29 0] [0x2 2 1 [17 0] [3 4]] (REQUEST)
r 1.116124433 _16_ RTR  --- 0 AODV 48 [0 ffffffff b 800] ------- [11:255 -1:255 29 0] [0x2 2 1 [17 0] [3 4]] (REQUEST)
r 1.116124437 _6_ RTR  --- 0 AODV 48 [0 ffffffff b 800] ------- [11:255 -1:255 29 0] [0x2 2 1 [17 0] [3 4]] (REQUEST)
r 1.116124560 _10_ RTR  --- 0 AODV 48 [0 ffffffff b 800] ------- [11:255 -1:255 29 0] [0x2 2 1 [17 0] [3 4]] (REQUEST)
r 1.116124560 _12_ RTR  --- 0 AODV 48 [0 ffffffff b 800] ------- [11:255 -1:255 29 0] [0x2 2 1 [17 0] [3 4]] (REQUEST)
r 1.116124619 _15_ RTR  --- 0 AODV 48 [0 ffffffff b 800] ------- [11:255 -1:255 29 0] [0x2 2 1 [17 0] [3 4]] (REQUEST)
r 1.116124619 _17_ RTR  --- 0 AODV 48 [0 ffffffff b 800] ------- [11:255 -1:255 29 0] [0x2 2 1 [17 0] [3 4]] (REQUEST)
r 1.116124621 _7_ RTR  --- 0 AODV 48 [0 ffffffff b 800] ------- [11:255 -1:255 29 0] [0x2 2 1 [17 0] [3 4]] (REQUEST)
r 1.116124621 _5_ RTR  --- 0 AODV 48 [0 ffffffff b 800] ------- [11:255 -1:255 29 0] [0x2 2 1 [17 0] [3 4]] (REQUEST)
r 1.116124643 _1_ RTR  --- 0 AODV 48 [0 ffffffff b 800] ------- [11:255 -1:255 29 0] [0x2 2 1 [17 0] [3 4]] (REQUEST)
r 1.116124643 _21_ RTR  --- 0 AODV 48 [0 ffffffff b 800] ------- [11:255 -1:255 29 0] [0x2 2 1 [17 0] [3 4]] (REQUEST)
r 1.116124760 _2_ RTR  --- 0 AODV 48 [0 ffffffff b 800] ------- [11:255 -1:255 29 0] [0x2 2 1 [17 0] [3 4]] (REQUEST)
r 1.116124760 _0_ RTR  --- 0 AODV 48 [0 ffffffff b 800] ------- [11:255 -1:255 29 0] [0x2 2 1 [17 0] [3 4]] (REQUEST)
r 1.116124760 _20_ RTR  --- 0 AODV 48 [0 ffffffff b 800] ------- [11:255 -1:255 29 0] [0x2 2 1 [17 0] [3 4]] (REQUEST)
r 1.116124760 _22_ RTR  --- 0 AODV 48 [0 ffffffff b 800] ------- [11:255 -1:255 29 0] [0x2 2 1 [17 0] [3 4]] (REQUEST)
r 1.116124850 _26_ RTR  --- 0 AODV 48 [0 ffffffff b 800] ------- [11:255 -1:255 29 0] [0x2 2 1 [17 0] [3 4]] (REQUEST)
r 1.116124893 _13_ RTR  --- 0 AODV 48 [0 ffffffff b 800] ------- [11:255 -1:255 29 0] [0x2 2 1 [17 0] [3 4]] (REQUEST)
r 1.116124925 _18_ RTR  --- 0 AODV 48 [0 ffffffff b 800] ------- [11:255 -1:255 29 0] [0x2 2 1 [17 0] [3 4]] (REQUEST)
r 1.116124926 _8_ RTR  --- 0 AODV 48 [0 ffffffff b 800] ------- [11:255 -1:255 29 0] [0x2 2 1 [17 0] [3 4]] (REQUEST)
r 1.116124934 _25_ RTR  --- 0 AODV 48 [0 ffffffff b 800] ------- [11:255 -1:255 29 0] [0x2 2 1 [17 0] [3 4]] (REQUEST)
r 1.116124934 _27_ RTR  --- 0 AODV 48 [0 ffffffff b 800] ------- [11:255 -1:255 29 0] [0x2 2 1 [17 0] [3 4]] (REQUEST)
r 1.116125013 _3_ RTR  --- 0 AODV 48 [0 ffffffff b 800] ------- [11:255 -1:255 29 0] [0x2 2 1 [17 0] [3 4]] (REQUEST)
r 1.116125013 _23_ RTR  --- 0 AODV 48 [0 ffffffff b 800] ------- [11:255 -1:255 29 0] [0x2 2 1 [17 0] [3 4]] (REQUEST)
r 1.116125060 _31_ RTR  --- 0 AODV 48 [0 ffffffff b 800] ------- [11:255 -1:255 29 0] [0x2 2 1 [17 0] [3 4]] (REQUEST)
s 1.116162366 _4_ RTR  --- 0 AODV 48 [0 ffffffff 3 800] ------- [4:255 -1:255 29 0] [0x2 2 1 [17 0] [3 4]] (REQUEST)
s 1.116995922 _19_ RTR  --- 0 AODV 48 [0 ffffffff 3 800] ------- [19:255 -1:255 29 0] [0x2 2 1 [17 0] [3 4]] (REQUEST)
s 1.117743409 _26_ RTR  --- 0 AODV 48 [0 ffffffff b 800] ------- [26:255 -1:255 28 0] [0x2 3 1 [17 0] [3 4]] (REQUEST)
s 1.118183585 _0_ RTR  --- 0 AODV 48 [0 ffffffff b 800] ------- [0:255 -1:255 28 0] [0x2 3 1 [17 0] [3 4]] (REQUEST)
s 1.118236380 _23_ RTR  --- 0 AODV 48 [0 ffffffff 3 800] ------- [23:255 -1:255 29 0] [0x2 2 1 [17 0] [3 4]] (REQUEST)
s 1.118441354 _7_ RTR  --- 0 AODV 48 [0 ffffffff 3 800] ------- [7:255 -1:255 29 0] [0x2 2 1 [17 0] [3 4]] (REQUEST)
r 1.118448870 _4_ RTR  --- 0 AODV 48 [0 ffffffff 9 800] ------- [9:255 -1:255 29 0] [0x2 2 1 [17 0] [3 4]] (REQUEST)
r 1.118448873 _14_ RTR  --- 0 AODV 48 [0 ffffffff 9 800] ------- [9:255 -1:255 29 0] [0x2 2 1 [17 0] [3 4]] (REQUEST)
r 1.118448996 _8_ RTR  --- 0 AODV 48 [0 ffffffff 9 800] ------- [9:255 -1:255 29 0] [0x2 2 1 [17 0] [3 4]] (REQUEST)
r 1.118449055 _3_ RTR  --- 0 AODV 48 [0 ffffffff 9 800] ------- [9:255 -1:255 29 0] [0x2 2 1 [17 0] [3 4]] (REQUEST)
r 1.118449057 _13_ RTR  --- 0 AODV 48 [0 ffffffff 9 800] ------- [9:255 -1:255 29 0] [0x2 2 1 [17 0] [3 4]] (REQUEST)
r 1.118449080 _19_ RTR  --- 0 AODV 48 [0 ffffffff 9 800] ------- [9:255 -1:255 29 0] [0x2 2 1 [17 0] [3 4]] (REQUEST)
r 1.118449197 _18_ RTR  --- 0 AODV 48 [0 ffffffff 9 800] ------- [9:255 -1:255 29 0] [0x2 2 1 [17 0] [3 4]] (REQUEST)
r 1.118449290 _24_ RTR  --- 0 AODV 48 [0 ffffffff 9 800] ------- [9:255 -1:255 29 0] [0x2 2 1 [17 0] [3 4]] (REQUEST)
r 1.118449330 _7_ RTR  --- 0 AODV 48 [0 ffffffff 9 800] ------- [9:255 -1:255 29 0] [0x2 2 1 [17 0] [3 4]] (REQUEST)
r 1.118449361 _2_ RTR  --- 0 AODV 48 [0 ffffffff 9 800] ------- [9:255 -1:255 29 0] [0x2 2 1 [17 0] [3 4]] (REQUEST)
r 1.118449362 _12_ RTR  --- 0 AODV 48 [0 ffffffff 9 800] ------- [9:255 -1:255 29 0] [0x2 2 1 [17 0] [3 4]] (REQUEST)
r 1.118449373 _23_ RTR  --- 0 AODV 48 [0 ffffffff 9 800] ------- [9:255 -1:255 29 0] [0x2 2 1 [17 0] [3 4]] (REQUEST)
r 1.118449449 _17_ RTR  --- 0 AODV 48 [0 ffffffff 9 800] ------- [9:255 -1:255 29 0] [0x2 2 1 [17 0] [3 4]] (REQUEST)
r 1.118449496 _29_ RTR  --- 0 AODV 48 [0 ffffffff 9 800] ------- [9:255 -1:255 29 0] [0x2 2 1 [17 0] [3 4]] (REQUEST)
s 1.118647205 _18_ RTR  --- 0 AODV 48 [0 ffffffff 3 800] ------- [18:255 -1:255 29 0] [0x2 2 1 [17 0] [3 4]] (REQUEST)
s 1.118753228 _15_ RTR  --- 0 AODV 48 [0 ffffffff b 800] ------- [15:255 -1:255 28 0] [0x2 3 1 [17 0] [3 4]] (REQUEST)
s 1.118772417 _25_ RTR  --- 0 AODV 48 [0 ffffffff b 800] ------- [25:255 -1:255 28 0] [0x2 3 1 [17 0] [3 4]] (REQUEST)
s 1.118901476 _2_ RTR  --- 0 AODV 48 [0 ffffffff 3 800] ------- [2:255 -1:255 29 0] [0x2 2 1 [17 0] [3 4]] (REQUEST)
s 1.119002962 _29_ RTR  --- 0 AODV 48 [0 ffffffff 9 800] ------- [29:255 -1:255 28 0] [0x2 3 1 [17 0] [3 4]] (REQUEST)
s 1.119911307 _27_ RTR  --- 0 AODV 48 [0 ffffffff b 800] ------- [27:255 -1:255 28 0] [0x2 3 1 [17 0] [3 4]] (REQUEST)
s 1.120592663 _24_ RTR  --- 0 AODV 48 [0 ffffffff 9 800] ------- [24:255 -1:255 28 0] [0x2 3 1 [17 0] [3 4]] (REQUEST)
s 1.120919782 _5_ RTR  --- 0 AODV 48 [0 ffffffff b 800] ------- [5:255 -1:255 28 0] [0x2 3 1 [17 0] [3 4]] (REQUEST)
r 1.121345616 _21_ RTR  --- 0 AODV 48 [0 ffffffff 1a 800] ------- [26:255 -1:255 28 0] [0x2 3 1 [17 0] [3 4]] (REQUEST)
r 1.121345619 _31_ RTR  --- 0 AODV 48 [0 ffffffff 1a 800] ------- [26:255 -1:255 28 0] [0x2 3 1 [17 0] [3 4]] (REQUEST)
r 1.121345743 _25_ RTR  --- 0 AODV 48 [0 ffffffff 1a 800] ------- [26:255 -1:255 28 0] [0x2 3 1 [17 0] [3 4]] (REQUEST)
r 1.121345801 _20_ RTR  --- 0 AODV 48 [0 ffffffff 1a 800] ------- [26:255 -1:255 28 0] [0x2 3 1 [17 0] [3 4]] (REQUEST)
r 1.121345803 _30_ RTR  --- 0 AODV 48 [0 ffffffff 1a 800] ------- [26:255 -1:255 28 0] [0x2 3 1 [17 0] [3 4]] (REQUEST)
r 1.121345826 _36_ RTR  --- 0 AODV 48 [0 ffffffff 1a 800] ------- [26:255 -1:255 28 0] [0x2 3 1 [17 0] [3 4]] (REQUEST)
r 1.121345943 _35_ RTR  --- 0 AODV 48 [0 ffffffff 1a 800] ------- [26:255 -1:255 28 0] [0x2 3 1 [17 0] [3 4]] (REQUEST)
r 1.121518587 _28_ RTR  --- 0 AODV 48 [0 ffffffff 17 800] ------- [23:255 -1:255 29 0] [0x2 2 1 [17 0] [3 4]] (REQUEST)
s 1.122242342 _31_ RTR  --- 0 AODV 48 [0 ffffffff b 800] ------- [31:255 -1:255 28 0] [0x2 3 1 [17 0] [3 4]] (REQUEST)
s 1.122697325 _22_ RTR  --- 0 AODV 48 [0 ffffffff b 800] ------- [22:255 -1:255 28 0] [0x2 3 1 [17 0] [3 4]] (REQUEST)
s 1.122878536 _20_ RTR  --- 0 AODV 48 [0 ffffffff b 800] ------- [20:255 -1:255 28 0] [0x2 3 1 [17 0] [3 4]] (REQUEST)
s 1.123422434 _10_ RTR  --- 0 AODV 48 [0 ffffffff b 800] ------- [10:255 -1:255 28 0] [0x2 3 1 [17 0] [3 4]] (REQUEST)
s 1.123621575 _21_ RTR  --- 0 AODV 48 [0 ffffffff b 800] ------- [21:255 -1:255 28 0] [0x2 3 1 [17 0] [3 4]] (REQUEST)
r 1.123833918 _1_ RTR  --- 0 AODV 48 [0 ffffffff 0 800] ------- [0:255 -1:255 28 0] [0x2 3 1 [17 0] [3 4]] (REQUEST)
r 1.123874870 _29_ RTR  --- 0 AODV 48 [0 ffffffff 18 800] ------- [24:255 -1:255 28 0] [0x2 3 1 [17 0] [3 4]] (REQUEST)
r 1.123974627 _30_ RTR  --- 0 AODV 48 [0 ffffffff 19 800] ------- [25:255 -1:255 28 0] [0x2 3 1 [17 0] [3 4]] (REQUEST)
r 1.123974834 _35_ RTR  --- 0 AODV 48 [0 ffffffff 19 800] ------- [25:255 -1:255 28 0] [0x2 3 1 [17 0] [3 4]] (REQUEST)
r 1.123977412 _13_ RTR  --- 0 AODV 48 [0 ffffffff 12 800] ------- [18:255 -1:255 29 0] [0x2 2 1 [17 0] [3 4]] (REQUEST)
s 1.124598073 _28_ RTR  --- 0 AODV 48 [0 ffffffff 17 800] ------- [28:255 -1:255 28 0] [0x2 3 1 [17 0] [3 4]] (REQUEST)
s 1.124934229 _16_ RTR  --- 0 AODV 48 [0 ffffffff b 800] ------- [16:255 -1:255 28 0] [0x2 3 1 [17 0] [3 4]] (REQUEST)
s 1.125664636 _36_ RTR  --- 0 AODV 48 [0 ffffffff 1a 800] ------- [36:255 -1:255 27 0] [0x2 4 1 [17 0] [3 4]] (REQUEST)
s 1.126220372 _35_ RTR  --- 0 AODV 48 [0 ffffffff 1a 800] ------- [35:255 -1:255 27 0] [0x2 4 1 [17 0] [3 4]] (REQUEST)
s 1.126405439 _6_ AGT  --- 1 tcp 40 [0 0 0 0] ------- [6:0 12:0 32 0] [0 0] 0 0
r 1.126405439 _6_ RTR  --- 1 tcp 40 [0 0 0 0] ------- [6:0 12:0 32 0] [0 0] 0 0
s 1.126405439 _6_ RTR  --- 0 AODV 48 [0 0 0 0] ------- [6:255 -1:255 30 0] [0x2 1 1 [12 0] [6 4]] (REQUEST)
r 1.126651560 _2_ RTR  --- 0 AODV 48 [0 ffffffff 7 800] ------- [7:255 -1:255 29 0] [0x2 2 1 [17 0] [3 4]] (REQUEST)
r 1.126651564 _12_ RTR  --- 0 AODV 48 [0 ffffffff 7 800] ------- [7:255 -1:255 29 0] [0x2 2 1 [17 0] [3 4]] (REQUEST)
r 1.126651687 _6_ RTR  --- 0 AODV 48 [0 ffffffff 7 800] ------- [7:255 -1:255 29 0] [0x2 2 1 [17 0] [3 4]] (REQUEST)
r 1.126651687 _8_ RTR  --- 0 AODV 48 [0 ffffffff 7 800] ------- [7:255 -1:255 29 0] [0x2 2 1 [17 0] [3 4]] (REQUEST)
r 1.126651746 _3_ RTR  --- 0 AODV 48 [0 ffffffff 7 800] ------- [7:255 -1:255 29 0] [0x2 2 1 [17 0] [3 4]] (REQUEST)
r 1.126651746 _1_ RTR  --- 0 AODV 48 [0 ffffffff 7 800] ------- [7:255 -1:255 29 0] [0x2 2 1 [17 0] [3 4]] (REQUEST)
r 1.126651748 _11_ RTR  --- 0 AODV 48 [0 ffffffff 7 800] ------- [7:255 -1:255 29 0] [0x2 2 1 [17 0] [3 4]] (REQUEST)
r 1.126651748 _13_ RTR  --- 0 AODV 48 [0 ffffffff 7 800] ------- [7:255 -1:255 29 0] [0x2 2 1 [17 0] [3 4]] (REQUEST)
r 1.126651770 _17_ RTR  --- 0 AODV 48 [0 ffffffff 7 800] ------- [7:255 -1:255 29 0] [0x2 2 1 [17 0] [3 4]] (REQUEST)
r 1.126651887 _16_ RTR  --- 0 AODV 48 [0 ffffffff 7 800] ------- [7:255 -1:255 29 0] [0x2 2 1 [17 0] [3 4]] (REQUEST)
r 1.126651887 _18_ RTR  --- 0 AODV 48 [0 ffffffff 7 800] ------- [7:255 -1:255 29 0] [0x2 2 1 [17 0] [3 4]] (REQUEST)
r 1.126651980 _22_ RTR  --- 0 AODV 48 [0 ffffffff 7 800] ------- [7:255 -1:255 29 0] [0x2 2 1 [17 0] [3 4]] (REQUEST)
r 1.126652020 _5_ RTR  --- 0 AODV 48 [0 ffffffff 7 800] ------- [7:255 -1:255 29 0] [0x2 2 1 [17 0] [3 4]] (REQUEST)
r 1.126652020 _9_ RTR  --- 0 AODV 48 [0 ffffffff 7 800] ------- [7:255 -1:255 29 0] [0x2 2 1 [17 0] [3 4]] (REQUEST)
r 1.126652052 _4_ RTR  --- 0 AODV 48 [0 ffffffff 7 800] ------- [7:255 -1:255 29 0] [0x2 2 1 [17 0] [3 4]] (REQUEST)
r 1.126652052 _0_ RTR  --- 0 AODV 48 [0 ffffffff 7 800] ------- [7:255 -1:255 29 0] [0x2 2 1 [17 0] [3 4]] (REQUEST)
r 1.126652053 _10_ RTR  --- 0 AODV 48 [0 ffffffff 7 800] ------- [7:255 -1:255 29 0] [0x2 2 1 [17 0] [3 4]] (REQUEST)
r 1.126652053 _14_ RTR  --- 0 AODV 48 [0 ffffffff 7 800] ------- [7:255 -1:255 29 0] [0x2 2 1 [17 0] [3 4]] (REQUEST)
r 1.126652064 _21_ RTR  --- 0 AODV 48 [0 ffffffff 7 800] ------- [7:255 -1:255 29 0] [0x2 2 1 [17 0] [3 4]] (REQUEST)
r 1.126652064 _23_ RTR  --- 0 AODV 48 [0 ffffffff 7 800] ------- [7:255 -1:255 29 0] [0x2 2 1 [17 0] [3 4]] (REQUEST)
r 1.126652140 _15_ RTR  --- 0 AODV 48 [0 ffffffff 7 800] ------- [7:255 -1:255 29 0] [0x2 2 1 [17 0] [3 4]] (REQUEST)
r 1.126652140 _19_ RTR  --- 0 AODV 48 [0 ffffffff 7 800] ------- [7:255 -1:255 29 0] [0x2 2 1 [17 0] [3 4]] (REQUEST)
r 1.126652187 _27_ RTR  --- 0 AODV 48 [0 ffffffff 7 800] ------- [7:255 -1:255 29 0] [0x2 2 1 [17 0] [3 4]] (REQUEST)
s 1.127838335 _38_ AGT  --- 2 tcp 40 [0 0 0 0] ------- [38:0 0:0 32 0] [0 0] 0 0
r 1.127838335 _38_ RTR  --- 2 tcp 40 [0 0 0 0] ------- [38:0 0:0 32 0] [0 0] 0 0
s 1.127838335 _38_ RTR  --- 0 AODV 48 [0 0 0 0] ------- [38:255 -1:255 30 0] [0x2 1 1 [0 0] [38 4]] (REQUEST)
s 1.128387445 _30_ RTR  --- 0 AODV 48 [0 ffffffff 1a 800] ------- [30:255 -1:255 27 0] [0x2 4 1 [17 0] [3 4]] (REQUEST)
r 1.128880641 _15_ RTR  --- 0 AODV 48 [0 ffffffff a 800] ------- [10:255 -1:255 28 0] [0x2 3 1 [17 0] [3 4]] (REQUEST)
r 1.128880644 _5_ RTR  --- 0 AODV 48 [0 ffffffff a 800] ------- [10:255 -1:255 28 0] [0x2 3 1 [17 0] [3 4]] (REQUEST)
r 1.128880767 _11_ RTR  --- 0 AODV 48 [0 ffffffff a 800] ------- [10:255 -1:255 28 0] [0x2 3 1 [17 0] [3 4]] (REQUEST)
r 1.128880826 _16_ RTR  --- 0 AODV 48 [0 ffffffff a 800] ------- [10:255 -1:255 28 0] [0x2 3 1 [17 0] [3 4]] (REQUEST)
r 1.128880828 _6_ RTR  --- 0 AODV 48 [0 ffffffff a 800] ------- [10:255 -1:255 28 0] [0x2 3 1 [17 0] [3 4]] (REQUEST)
r 1.128880851 _0_ RTR  --- 0 AODV 48 [0 ffffffff a 800] ------- [10:255 -1:255 28 0] [0x2 3 1 [17 0] [3 4]] (REQUEST)
r 1.128880851 _20_ RTR  --- 0 AODV 48 [0 ffffffff a 800] ------- [10:255 -1:255 28 0] [0x2 3 1 [17 0] [3 4]] (REQUEST)
r 1.128880968 _1_ RTR  --- 0 AODV 48 [0 ffffffff a 800] ------- [10:255 -1:255 28 0] [0x2 3 1 [17 0] [3 4]] (REQUEST)
r 1.128880968 _21_ RTR  --- 0 AODV 48 [0 ffffffff a 800] ------- [10:255 -1:255 28 0] [0x2 3 1 [17 0] [3 4]] (REQUEST)
r 1.128881057 _25_ RTR  --- 0 AODV 48 [0 ffffffff a 800] ------- [10:255 -1:255 28 0] [0x2 3 1 [17 0] [3 4]] (REQUEST)
r 1.128881101 _12_ RTR  --- 0 AODV 48 [0 ffffffff a 800] ------- [10:255 -1:255 28 0] [0x2 3 1 [17 0] [3 4]] (REQUEST)
r 1.128881132 _17_ RTR  --- 0 AODV 48 [0 ffffffff a 800] ------- [10:255 -1:255 28 0] [0x2 3 1 [17 0] [3 4]] (REQUEST)
r 1.128881133 _7_ RTR  --- 0 AODV 48 [0 ffffffff a 800] ------- [10:255 -1:255 28 0] [0x2 3 1 [17 0] [3 4]] (REQUEST)
r 1.128881141 _26_ RTR  --- 0 AODV 48 [0 ffffffff a 800] ------- [10:255 -1:255 28 0] [0x2 3 1 [17 0] [3 4]] (REQUEST)
r 1.128881220 _2_ RTR  --- 0 AODV 48 [0 ffffffff a 800] ------- [10:255 -1:255 28 0] [0x2 3 1 [17 0] [3 4]] (REQUEST)
r 1.128881220 _22_ RTR  --- 0 AODV 48 [0 ffffffff a 800] ------- [10:255 -1:255 28 0] [0x2 3 1 [17 0] [3 4]] (REQUEST)
r 1.128881267 _30_ RTR  --- 0 AODV 48 [0 ffffffff a 800] ------- [10:255 -1:255 28 0] [0x2 3 1 [17 0] [3 4]] (REQUEST)
r 1.131144279 _23_ RTR  --- 0 AODV 48 [0 ffffffff 1c 800] ------- [28:255 -1:255 28 0] [0x2 3 1 [17 0] [3 4]] (REQUEST)
r 1.131144283 _33_ RTR  --- 0 AODV 48 [0 ffffffff 1c 800] ------- [28:255 -1:255 28 0] [0x2 3 1 [17 0] [3 4]] (REQUEST)
r 1.131144406 _29_ RTR  --- 0 AODV 48 [0 ffffffff 1c 800] ------- [28:255 -1:255 28 0] [0x2 3 1 [17 0] [3 4]] (REQUEST)
r 1.131144465 _24_ RTR  --- 0 AODV 48 [0 ffffffff 1c 800] ------- [28:255 -1:255 28 0] [0x2 3 1 [17 0] [3 4]] (REQUEST)
r 1.131144467 _34_ RTR  --- 0 AODV 48 [0 ffffffff 1c 800] ------- [28:255 -1:255 28 0] [0x2 3 1 [17 0] [3 4]] (REQUEST)
r 1.131191785 _16_ RTR  --- 0 AODV 48 [0 ffffffff 15 800] ------- [21:255 -1:255 28 0] [0x2 3 1 [17 0] [3 4]] (REQUEST)
r 1.131191909 _20_ RTR  --- 0 AODV 48 [0 ffffffff 15 800] ------- [21:255 -1:255 28 0] [0x2 3 1 [17 0] [3 4]] (REQUEST)
r 1.131191969 _15_ RTR  --- 0 AODV 48 [0 ffffffff 15 800] ------- [21:255 -1:255 28 0] [0x2 3 1 [17 0] [3 4]] (REQUEST)
r 1.131191992 _11_ RTR  --- 0 AODV 48 [0 ffffffff 15 800] ------- [21:255 -1:255 28 0] [0x2 3 1 [17 0] [3 4]] (REQUEST)
r 1.131192109 _10_ RTR  --- 0 AODV 48 [0 ffffffff 15 800] ------- [21:255 -1:255 28 0] [0x2 3 1 [17 0] [3 4]] (REQUEST)
r 1.131314970 _35_ RTR  --- 0 AODV 48 [0 ffffffff 24 800] ------- [36:255 -1:255 27 0] [0x2 4 1 [17 0] [3 4]] (REQUEST)
r 1.133717651 _35_ RTR  --- 0 AODV 48 [0 ffffffff 1e 800] ------- [30:255 -1:255 27 0] [0x2 4 1 [17 0] [3 4]] (REQUEST)
r 1.133717655 _25_ RTR  --- 0 AODV 48 [0 ffffffff 1e 800] ------- [30:255 -1:255 27 0] [0x2 4 1 [17 0] [3 4]] (REQUEST)
r 1.133717778 _31_ RTR  --- 0 AODV 48 [0 ffffffff 1e 800] ------- [30:255 -1:255 27 0] [0x2 4 1 [17 0] [3 4]] (REQUEST)
r 1.133717839 _26_ RTR  --- 0 AODV 48 [0 ffffffff 1e 800] ------- [30:255 -1:255 27 0] [0x2 4 1 [17 0] [3 4]] (REQUEST)
r 1.133717861 _20_ RTR  --- 0 AODV 48 [0 ffffffff 1e 800] ------- [30:255 -1:255 27 0] [0x2 4 1 [17 0] [3 4]] (REQUEST)
r 1.133718071 _15_ RTR  --- 0 AODV 48 [0 ffffffff 1e 800] ------- [30:255 -1:255 27 0] [0x2 4 1 [17 0] [3 4]] (REQUEST)
r 1.133808541 _33_ RTR  --- 0 AODV 48 [0 ffffffff 26 800] ------- [38:255 -1:255 30 0] [0x2 1 1 [0 0] [38 4]] (REQUEST)
r 1.133808668 _37_ RTR  --- 0 AODV 48 [0 ffffffff 26 800] ------- [38:255 -1:255 30 0] [0x2 1 1 [0 0] [38 4]] (REQUEST)
r 1.133808668 _39_ RTR  --- 0 AODV 48 [0 ffffffff 26 800] ------- [38:255 -1:255 30 0] [0x2 1 1 [0 0] [38 4]] (REQUEST)
r 1.133808727 _34_ RTR  --- 0 AODV 48 [0 ffffffff 26 800] ------- [38:255 -1:255 30 0] [0x2 1 1 [0 0] [38 4]] (REQUEST)
r 1.133808751 _28_ RTR  --- 0 AODV 48 [0 ffffffff 26 800] ------- [38:255 -1:255 30 0] [0x2 1 1 [0 0] [38 4]] (REQUEST)
r 1.133808868 _29_ RTR  --- 0 AODV 48 [0 ffffffff 26 800] ------- [38:255 -1:255 30 0] [0x2 1 1 [0 0] [38 4]] (REQUEST)
r 1.133809041 _24_ RTR  --- 0 AODV 48 [0 ffffffff 26 800] ------- [38:255 -1:255 30 0] [0x2 1 1 [0 0] [38 4]] (REQUEST)
s 1.134156254 _29_ RTR  --- 0 AODV 48 [0 ffffffff 26 800] ------- [29:255 -1:255 29 0] [0x2 2 1 [0 0] [38 4]] (REQUEST)
s 1.134465051 _24_ RTR  --- 0 AODV 48 [0 ffffffff 26 800] ------- [24:255 -1:255 29 0] [0x2 2 1 [0 0] [38 4]] (REQUEST)
s 1.136253893 _33_ RTR  --- 0 AODV 48 [0 ffffffff 1c 800] ------- [33:255 -1:255 27 0] [0x2 4 1 [17 0] [3 4]] (REQUEST)
s 1.136321651 _28_ RTR  --- 0 AODV 48 [0 ffffffff 26 800] ------- [28:255 -1:255 29 0] [0x2 2 1 [0 0] [38 4]] (REQUEST)
r 1.136455682 _7_ RTR  --- 0 AODV 48 [0 ffffffff 2 800] ------- [2:255 -1:255 29 0] [0x2 2 1 [17 0] [3 4]] (REQUEST)
r 1.136455809 _1_ RTR  --- 0 AODV 48 [0 ffffffff 2 800] ------- [2:255 -1:255 29 0] [0x2 2 1 [17 0] [3 4]] (REQUEST)
r 1.136455809 _3_ RTR  --- 0 AODV 48 [0 ffffffff 2 800] ------- [2:255 -1:255 29 0] [0x2 2 1 [17 0] [3 4]] (REQUEST)
r 1.136455868 _6_ RTR  --- 0 AODV 48 [0 ffffffff 2 800] ------- [2:255 -1:255 29 0] [0x2 2 1 [17 0] [3 4]] (REQUEST)
r 1.136455868 _8_ RTR  --- 0 AODV 48 [0 ffffffff 2 800] ------- [2:255 -1:255 29 0] [0x2 2 1 [17 0] [3 4]] (REQUEST)
r 1.136455892 _12_ RTR  --- 0 AODV 48 [0 ffffffff 2 800] ------- [2:255 -1:255 29 0] [0x2 2 1 [17 0] [3 4]] (REQUEST)
r 1.136456009 _11_ RTR  --- 0 AODV 48 [0 ffffffff 2 800] ------- [2:255 -1:255 29 0] [0x2 2 1 [17 0] [3 4]] (REQUEST)
r 1.136456009 _13_ RTR  --- 0 AODV 48 [0 ffffffff 2 800] ------- [2:255 -1:255 29 0] [0x2 2 1 [17 0] [3 4]] (REQUEST)
r 1.136456099 _17_ RTR  --- 0 AODV 48 [0 ffffffff 2 800] ------- [2:255 -1:255 29 0] [0x2 2 1 [17 0] [3 4]] (REQUEST)
r 1.136456142 _0_ RTR  --- 0 AODV 48 [0 ffffffff 2 800] ------- [2:255 -1:255 29 0] [0x2 2 1 [17 0] [3 4]] (REQUEST)
r 1.136456142 _4_ RTR  --- 0 AODV 48 [0 ffffffff 2 800] ------- [2:255 -1:255 29 0] [0x2 2 1 [17 0] [3 4]] (REQUEST)
r 1.136456173 _5_ RTR  --- 0 AODV 48 [0 ffffffff 2 800] ------- [2:255 -1:255 29 0] [0x2 2 1 [17 0] [3 4]] (REQUEST)
r 1.136456173 _9_ RTR  --- 0 AODV 48 [0 ffffffff 2 800] ------- [2:255 -1:255 29 0] [0x2 2 1 [17 0] [3 4]] (REQUEST)
r 1.136456182 _16_ RTR  --- 0 AODV 48 [0 ffffffff 2 800] ------- [2:255 -1:255 29 0] [0x2 2 1 [17 0] [3 4]] (REQUEST)
r 1.136456182 _18_ RTR  --- 0 AODV 48 [0 ffffffff 2 800] ------- [2:255 -1:255 29 0] [0x2 2 1 [17 0] [3 4]] (REQUEST)
r 1.136456262 _10_ RTR  --- 0 AODV 48 [0 ffffffff 2 800] ------- [2:255 -1:255 29 0] [0x2 2 1 [17 0] [3 4]] (REQUEST)
r 1.136456262 _14_ RTR  --- 0 AODV 48 [0 ffffffff 2 800] ------- [2:255 -1:255 29 0] [0x2 2 1 [17 0] [3 4]] (REQUEST)
r 1.136456309 _22_ RTR  --- 0 AODV 48 [0 ffffffff 2 800] ------- [2:255 -1:255 29 0] [0x2 2 1 [17 0] [3 4]] (REQUEST)
s 1.138271429 _33_ RTR  --- 0 AODV 48 [0 ffffffff 26 800] ------- [33:255 -1:255 29 0] [0x2 2 1 [0 0] [38 4]] (REQUEST)
r 1.138718579 _30_ RTR  --- 0 AODV 48 [0 ffffffff 23 800] ------- [35:255 -1:255 27 0] [0x2 4 1 [17 0] [3 4]] (REQUEST)
r 1.138718705 _36_ RTR  --- 0 AODV 48 [0 ffffffff 23 800] ------- [35:255 -1:255 27 0] [0x2 4 1 [17 0] [3 4]] (REQUEST)
r 1.138718764 _31_ RTR  --- 0 AODV 48 [0 ffffffff 23 800] ------- [35:255 -1:255 27 0] [0x2 4 1 [17 0] [3 4]] (REQUEST)
r 1.138718789 _25_ RTR  --- 0 AODV 48 [0 ffffffff 23 800] ------- [35:255 -1:255 27 0] [0x2 4 1 [17 0] [3 4]] (REQUEST)
r 1.138718906 _26_ RTR  --- 0 AODV 48 [0 ffffffff 23 800] ------- [35:255 -1:255 27 0] [0x2 4 1 [17 0] [3 4]] (REQUEST)
r 1.138718995 _20_ RTR  --- 0 AODV 48 [0 ffffffff 23 800] ------- [35:255 -1:255 27 0] [0x2 4 1 [17 0] [3 4]] (REQUEST)
r 1.138719039 _37_ RTR  --- 0 AODV 48 [0 ffffffff 23 800] ------- [35:255 -1:255 27 0] [0x2 4 1 [17 0] [3 4]] (REQUEST)
r 1.138719070 _32_ RTR  --- 0 AODV 48 [0 ffffffff 23 800] ------- [35:255 -1:255 27 0] [0x2 4 1 [17 0] [3 4]] (REQUEST)
r 1.138719079 _21_ RTR  --- 0 AODV 48 [0 ffffffff 23 800] ------- [35:255 -1:255 27 0] [0x2 4 1 [17 0] [3 4]] (REQUEST)
r 1.138719158 _27_ RTR  --- 0 AODV 48 [0 ffffffff 23 800] ------- [35:255 -1:255 27 0] [0x2 4 1 [17 0] [3 4]] (REQUEST)
r 1.138719205 _15_ RTR  --- 0 AODV 48 [0 ffffffff 23 800] ------- [35:255 -1:255 27 0] [0x2 4 1 [17 0] [3 4]] (REQUEST)
s 1.138831321 _34_ RTR  --- 0 AODV 48 [0 ffffffff 1c 800] ------- [34:255 -1:255 27 0] [0x2 4 1 [17 0] [3 4]] (REQUEST)
s 1.139556280 _34_ RTR  --- 0 AODV 48 [0 ffffffff 26 800] ------- [34:255 -1:255 29 0] [0x2 2 1 [0 0] [38 4]] (REQUEST)
s 1.139686355 _37_ RTR  --- 0 AODV 48 [0 ffffffff 26 800] ------- [37:255 -1:255 29 0] [0x2 2 1 [0 0] [38 4]] (REQUEST)
s 1.140009282 _37_ RTR  --- 0 AODV 48 [0 ffffffff 23 800] ------- [37:255 -1:255 26 0] [0x2 5 1 [17 0] [3 4]] (REQUEST)
s 1.140330389 _39_ RTR  --- 0 AODV 48 [0 ffffffff 26 800] ------- [39:255 -1:255 29 0] [0x2 2 1 [0 0] [38 4]] (REQUEST)
r 1.141592436 _11_ RTR  --- 0 AODV 48 [0 ffffffff 10 800] ------- [16:255 -1:255 28 0] [0x2 3 1 [17 0] [3 4]] (REQUEST)
r 1.141592439 _21_ RTR  --- 0 AODV 48 [0 ffffffff 10 800] ------- [16:255 -1:255 28 0] [0x2 3 1 [17 0] [3 4]] (REQUEST)
r 1.141592562 _15_ RTR  --- 0 AODV 48 [0 ffffffff 10 800] ------- [16:255 -1:255 28 0] [0x2 3 1 [17 0] [3 4]] (REQUEST)
r 1.141592562 _17_ RTR  --- 0 AODV 48 [0 ffffffff 10 800] ------- [16:255 -1:255 28 0] [0x2 3 1 [17 0] [3 4]] (REQUEST)
r 1.141592621 _12_ RTR  --- 0 AODV 48 [0 ffffffff 10 800] ------- [16:255 -1:255 28 0] [0x2 3 1 [17 0] [3 4]] (REQUEST)
r 1.141592621 _10_ RTR  --- 0 AODV 48 [0 ffffffff 10 800] ------- [16:255 -1:255 28 0] [0x2 3 1 [17 0] [3 4]] (REQUEST)
r 1.141592623 _20_ RTR  --- 0 AODV 48 [0 ffffffff 10 800] ------- [16:255 -1:255 28 0] [0x2 3 1 [17 0] [3 4]] (REQUEST)
r 1.141592623 _22_ RTR  --- 0 AODV 48 [0 ffffffff 10 800] ------- [16:255 -1:255 28 0] [0x2 3 1 [17 0] [3 4]] (REQUEST)
r 1.141592646 _6_ RTR  --- 0 AODV 48 [0 ffffffff 10 800] ------- [16:255 -1:255 28 0] [0x2 3 1 [17 0] [3 4]] (REQUEST)
r 1.141592646 _26_ RTR  --- 0 AODV 48 [0 ffffffff 10 800] ------- [16:255 -1:255 28 0] [0x2 3 1 [17 0] [3 4]] (REQUEST)
r 1.141592763 _7_ RTR  --- 0 AODV 48 [0 ffffffff 10 800] ------- [16:255 -1:255 28 0] [0x2 3 1 [17 0] [3 4]] (REQUEST)
r 1.141592763 _5_ RTR  --- 0 AODV 48 [0 ffffffff 10 800] ------- [16:255 -1:255 28 0] [0x2 3 1 [17 0] [3 4]] (REQUEST)
r 1.141592763 _25_ RTR  --- 0 AODV 48 [0 ffffffff 10 800] ------- [16:255 -1:255 28 0] [0x2 3 1 [17 0] [3 4]] (REQUEST)
r 1.141592763 _27_ RTR  --- 0 AODV 48 [0 ffffffff 10 800] ------- [16:255 -1:255 28 0] [0x2 3 1 [17 0] [3 4]] (REQUEST)
r 1.141592852 _1_ RTR  --- 0 AODV 48 [0 ffffffff 10 800] ------- [16:255 -1:255 28 0] [0x2 3 1 [17 0] [3 4]] (REQUEST)
r 1.141592856 _31_ RTR  --- 0 AODV 48 [0 ffffffff 10 800] ------- [16:255 -1:255 28 0] [0x2 3 1 [17 0] [3 4]] (REQUEST)
r 1.141592896 _18_ RTR  --- 0 AODV 48 [0 ffffffff 10 800] ------- [16:255 -1:255 28 0] [0x2 3 1 [17 0] [3 4]] (REQUEST)
r 1.141592927 _13_ RTR  --- 0 AODV 48 [0 ffffffff 10 800] ------- [16:255 -1:255 28 0] [0x2 3 1 [17 0] [3 4]] (REQUEST)
r 1.141592928 _23_ RTR  --- 0 AODV 48 [0 ffffffff 10 800] ------- [16:255 -1:255 28 0] [0x2 3 1 [17 0] [3 4]] (REQUEST)
r 1.141592936 _2_ RTR  --- 0 AODV 48 [0 ffffffff 10 800] ------- [16:255 -1:255 28 0] [0x2 3 1 [17 0] [3 4]] (REQUEST)
r 1.141592936 _0_ RTR  --- 0 AODV 48 [0 ffffffff 10 800] ------- [16:255 -1:255 28 0] [0x2 3 1 [17 0] [3 4]] (REQUEST)
r 1.141592939 _30_ RTR  --- 0 AODV 48 [0 ffffffff 10 800] ------- [16:255 -1:255 28 0] [0x2 3 1 [17 0] [3 4]] (REQUEST)
r 1.141592939 _32_ RTR  --- 0 AODV 48 [0 ffffffff 10 800] ------- [16:255 -1:255 28 0] [0x2 3 1 [17 0] [3 4]] (REQUEST)
r 1.141593015 _8_ RTR  --- 0 AODV 48 [0 ffffffff 10 800] ------- [16:255 -1:255 28 0] [0x2 3 1 [17 0] [3 4]] (REQUEST)
r 1.141593015 _28_ RTR  --- 0 AODV 48 [0 ffffffff 10 800] ------- [16:255 -1:255 28 0] [0x2 3 1 [17 0] [3 4]] (REQUEST)
r 1.141593062 _36_ RTR  --- 0 AODV 48 [0 ffffffff 10 800] ------- [16:255 -1:255 28 0] [0x2 3 1 [17 0] [3 4]] (REQUEST)
s 1.141931617 _32_ RTR  --- 0 AODV 48 [0 ffffffff 23 800] ------- [32:255 -1:255 26 0] [0x2 5 1 [17 0] [3 4]] (REQUEST)
r 1.144185513 _22_ RTR  --- 0 AODV 48 [0 ffffffff 1b 800] ------- [27:255 -1:255 28 0] [0x2 3 1 [17 0] [3 4]] (REQUEST)
r 1.144185517 _32_ RTR  --- 0 AODV 48 [0 ffffffff 1b 800] ------- [27:255 -1:255 28 0] [0x2 3 1 [17 0] [3 4]] (REQUEST)
r 1.144185640 _26_ RTR  --- 0 AODV 48 [0 ffffffff 1b 800] ------- [27:255 -1:255 28 0] [0x2 3 1 [17 0] [3 4]] (REQUEST)
r 1.144185640 _28_ RTR  --- 0 AODV 48 [0 ffffffff 1b 800] ------- [27:255 -1:255 28 0] [0x2 3 1 [17 0] [3 4]] (REQUEST)
r 1.144185699 _23_ RTR  --- 0 AODV 48 [0 ffffffff 1b 800] ------- [27:255 -1:255 28 0] [0x2 3 1 [17 0] [3 4]] (REQUEST)
r 1.144185699 _21_ RTR  --- 0 AODV 48 [0 ffffffff 1b 800] ------- [27:255 -1:255 28 0] [0x2 3 1 [17 0] [3 4]] (REQUEST)
r 1.144185701 _31_ RTR  --- 0 AODV 48 [0 ffffffff 1b 800] ------- [27:255 -1:255 28 0] [0x2 3 1 [17 0] [3 4]] (REQUEST)
r 1.144185701 _33_ RTR  --- 0 AODV 48 [0 ffffffff 1b 800] ------- [27:255 -1:255 28 0] [0x2 3 1 [17 0] [3 4]] (REQUEST)
r 1.144185723 _17_ RTR  --- 0 AODV 48 [0 ffffffff 1b 800] ------- [27:255 -1:255 28 0] [0x2 3 1 [17 0] [3 4]] (REQUEST)
r 1.144185723 _37_ RTR  --- 0 AODV 48 [0 ffffffff 1b 800] ------- [27:255 -1:255 28 0] [0x2 3 1 [17 0] [3 4]] (REQUEST)
r 1.144185840 _18_ RTR  --- 0 AODV 48 [0 ffffffff 1b 800] ------- [27:255 -1:255 28 0] [0x2 3 1 [17 0] [3 4]] (REQUEST)
r 1.144185840 _16_ RTR  --- 0 AODV 48 [0 ffffffff 1b 800] ------- [27:255 -1:255 28 0] [0x2 3 1 [17 0] [3 4]] (REQUEST)
r 1.144185840 _36_ RTR  --- 0 AODV 48 [0 ffffffff 1b 800] ------- [27:255 -1:255 28 0] [0x2 3 1 [17 0] [3 4]] (REQUEST)
r 1.144185840 _38_ RTR  --- 0 AODV 48 [0 ffffffff 1b 800] ------- [27:255 -1:255 28 0] [0x2 3 1 [17 0] [3 4]] (REQUEST)
r 1.144185930 _12_ RTR  --- 0 AODV 48 [0 ffffffff 1b 800] ------- [27:255 -1:255 28 0] [0x2 3 1 [17 0] [3 4]] (REQUEST)
r 1.144185973 _25_ RTR  --- 0 AODV 48 [0 ffffffff 1b 800] ------- [27:255 -1:255 28 0] [0x2 3 1 [17 0] [3 4]] (REQUEST)
r 1.144185973 _29_ RTR  --- 0 AODV 48 [0 ffffffff 1b 800] ------- [27:255 -1:255 28 0] [0x2 3 1 [17 0] [3 4]] (REQUEST)