s 1.106011134 _13_ AGT  --- 0 tcp 40 [0 0 0 0] ------- [13:3 0:0 32 0] [0 0] 0 0
r 1.106011134 _13_ RTR  --- 0 tcp 40 [0 0 0 0] ------- [13:3 0:0 32 0] [0 0] 0 0
s 1.106011134 _13_ RTR  --- 0 AODV 48 [0 0 0 0] ------- [13:255 -1:255 30 0] [0x2 1 1 [0 0] [13 4]] (REQUEST)
r 1.109933447 _8_ RTR  --- 0 AODV 48 [0 ffffffff d 800] ------- [13:255 -1:255 30 0] [0x2 1 1 [0 0] [13 4]] (REQUEST)
r 1.109933447 _18_ RTR  --- 0 AODV 48 [0 ffffffff d 800] ------- [13:255 -1:255 30 0] [0x2 1 1 [0 0] [13 4]] (REQUEST)
r 1.109933634 _12_ RTR  --- 0 AODV 48 [0 ffffffff d 800] ------- [13:255 -1:255 30 0] [0x2 1 1 [0 0] [13 4]] (REQUEST)
r 1.109933634 _14_ RTR  --- 0 AODV 48 [0 ffffffff d 800] ------- [13:255 -1:255 30 0] [0x2 1 1 [0 0] [13 4]] (REQUEST)
r 1.109933724 _9_ RTR  --- 0 AODV 48 [0 ffffffff d 800] ------- [13:255 -1:255 30 0] [0x2 1 1 [0 0] [13 4]] (REQUEST)
r 1.109933724 _7_ RTR  --- 0 AODV 48 [0 ffffffff d 800] ------- [13:255 -1:255 30 0] [0x2 1 1 [0 0] [13 4]] (REQUEST)
r 1.109933724 _17_ RTR  --- 0 AODV 48 [0 ffffffff d 800] ------- [13:255 -1:255 30 0] [0x2 1 1 [0 0] [13 4]] (REQUEST)
r 1.109933724 _19_ RTR  --- 0 AODV 48 [0 ffffffff d 800] ------- [13:255 -1:255 30 0] [0x2 1 1 [0 0] [13 4]] (REQUEST)
r 1.109933757 _3_ RTR  --- 0 AODV 48 [0 ffffffff d 800] ------- [13:255 -1:255 30 0] [0x2 1 1 [0 0] [13 4]] (REQUEST)
r 1.109933760 _23_ RTR  --- 0 AODV 48 [0 ffffffff d 800] ------- [13:255 -1:255 30 0] [0x2 1 1 [0 0] [13 4]] (REQUEST)
r 1.109933933 _4_ RTR  --- 0 AODV 48 [0 ffffffff d 800] ------- [13:255 -1:255 30 0] [0x2 1 1 [0 0] [13 4]] (REQUEST)
r 1.109933933 _2_ RTR  --- 0 AODV 48 [0 ffffffff d 800] ------- [13:255 -1:255 30 0] [0x2 1 1 [0 0] [13 4]] (REQUEST)
r 1.109933935 _22_ RTR  --- 0 AODV 48 [0 ffffffff d 800] ------- [13:255 -1:255 30 0] [0x2 1 1 [0 0] [13 4]] (REQUEST)
r 1.109933935 _24_ RTR  --- 0 AODV 48 [0 ffffffff d 800] ------- [13:255 -1:255 30 0] [0x2 1 1 [0 0] [13 4]] (REQUEST)
s 1.110328796 _23_ RTR  --- 0 AODV 48 [0 ffffffff d 800] ------- [23:255 -1:255 29 0] [0x2 2 1 [0 0] [13 4]] (REQUEST)
s 1.110578614 _17_ RTR  --- 0 AODV 48 [0 ffffffff d 800] ------- [17:255 -1:255 29 0] [0x2 2 1 [0 0] [13 4]] (REQUEST)
s 1.111518861 _9_ RTR  --- 0 AODV 48 [0 ffffffff d 800] ------- [9:255 -1:255 29 0] [0x2 2 1 [0 0] [13 4]] (REQUEST)
s 1.111700572 _19_ RTR  --- 0 AODV 48 [0 ffffffff d 800] ------- [19:255 -1:255 29 0] [0x2 2 1 [0 0] [13 4]] (REQUEST)
s 1.112202242 _22_ RTR  --- 0 AODV 48 [0 ffffffff d 800] ------- [22:255 -1:255 29 0] [0x2 2 1 [0 0] [13 4]] (REQUEST)
s 1.112289130 _7_ RTR  --- 0 AODV 48 [0 ffffffff d 800] ------- [7:255 -1:255 29 0] [0x2 2 1 [0 0] [13 4]] (REQUEST)
r 1.113931106 _28_ RTR  --- 0 AODV 48 [0 ffffffff 17 800] ------- [23:255 -1:255 29 0] [0x2 2 1 [0 0] [13 4]] (REQUEST)
r 1.113931109 _18_ RTR  --- 0 AODV 48 [0 ffffffff 17 800] ------- [23:255 -1:255 29 0] [0x2 2 1 [0 0] [13 4]] (REQUEST)
r 1.113931296 _22_ RTR  --- 0 AODV 48 [0 ffffffff 17 800] ------- [23:255 -1:255 29 0] [0x2 2 1 [0 0] [13 4]] (REQUEST)
r 1.113931296 _24_ RTR  --- 0 AODV 48 [0 ffffffff 17 800] ------- [23:255 -1:255 29 0] [0x2 2 1 [0 0] [13 4]] (REQUEST)
r 1.113931384 _27_ RTR  --- 0 AODV 48 [0 ffffffff 17 800] ------- [23:255 -1:255 29 0] [0x2 2 1 [0 0] [13 4]] (REQUEST)
r 1.113931384 _29_ RTR  --- 0 AODV 48 [0 ffffffff 17 800] ------- [23:255 -1:255 29 0] [0x2 2 1 [0 0] [13 4]] (REQUEST)
r 1.113931386 _19_ RTR  --- 0 AODV 48 [0 ffffffff 17 800] ------- [23:255 -1:255 29 0] [0x2 2 1 [0 0] [13 4]] (REQUEST)
r 1.113931386 _17_ RTR  --- 0 AODV 48 [0 ffffffff 17 800] ------- [23:255 -1:255 29 0] [0x2 2 1 [0 0] [13 4]] (REQUEST)
r 1.113931419 _33_ RTR  --- 0 AODV 48 [0 ffffffff 17 800] ------- [23:255 -1:255 29 0] [0x2 2 1 [0 0] [13 4]] (REQUEST)
r 1.113931422 _13_ RTR  --- 0 AODV 48 [0 ffffffff 17 800] ------- [23:255 -1:255 29 0] [0x2 2 1 [0 0] [13 4]] (REQUEST)
r 1.113931595 _32_ RTR  --- 0 AODV 48 [0 ffffffff 17 800] ------- [23:255 -1:255 29 0] [0x2 2 1 [0 0] [13 4]] (REQUEST)
r 1.113931595 _34_ RTR  --- 0 AODV 48 [0 ffffffff 17 800] ------- [23:255 -1:255 29 0] [0x2 2 1 [0 0] [13 4]] (REQUEST)
r 1.113931597 _14_ RTR  --- 0 AODV 48 [0 ffffffff 17 800] ------- [23:255 -1:255 29 0] [0x2 2 1 [0 0] [13 4]] (REQUEST)
r 1.113931597 _12_ RTR  --- 0 AODV 48 [0 ffffffff 17 800] ------- [23:255 -1:255 29 0] [0x2 2 1 [0 0] [13 4]] (REQUEST)
s 1.114781188 _8_ RTR  --- 0 AODV 48 [0 ffffffff d 800] ------- [8:255 -1:255 29 0] [0x2 2 1 [0 0] [13 4]] (REQUEST)
s 1.115449358 _33_ RTR  --- 0 AODV 48 [0 ffffffff 17 800] ------- [33:255 -1:255 28 0] [0x2 3 1 [0 0] [13 4]] (REQUEST)
s 1.115718945 _4_ RTR  --- 0 AODV 48 [0 ffffffff d 800] ------- [4:255 -1:255 29 0] [0x2 2 1 [0 0] [13 4]] (REQUEST)
s 1.116162532 _12_ RTR  --- 0 AODV 48 [0 ffffffff d 800] ------- [12:255 -1:255 29 0] [0x2 2 1 [0 0] [13 4]] (REQUEST)
r 1.116902885 _14_ RTR  --- 0 AODV 48 [0 ffffffff 13 800] ------- [19:255 -1:255 29 0] [0x2 2 1 [0 0] [13 4]] (REQUEST)
r 1.116902885 _24_ RTR  --- 0 AODV 48 [0 ffffffff 13 800] ------- [19:255 -1:255 29 0] [0x2 2 1 [0 0] [13 4]] (REQUEST)
r 1.116903072 _18_ RTR  --- 0 AODV 48 [0 ffffffff 13 800] ------- [19:255 -1:255 29 0] [0x2 2 1 [0 0] [13 4]] (REQUEST)
r 1.116903162 _13_ RTR  --- 0 AODV 48 [0 ffffffff 13 800] ------- [19:255 -1:255 29 0] [0x2 2 1 [0 0] [13 4]] (REQUEST)
r 1.116903162 _23_ RTR  --- 0 AODV 48 [0 ffffffff 13 800] ------- [19:255 -1:255 29 0] [0x2 2 1 [0 0] [13 4]] (REQUEST)
r 1.116903195 _29_ RTR  --- 0 AODV 48 [0 ffffffff 13 800] ------- [19:255 -1:255 29 0] [0x2 2 1 [0 0] [13 4]] (REQUEST)
r 1.116903198 _9_ RTR  --- 0 AODV 48 [0 ffffffff 13 800] ------- [19:255 -1:255 29 0] [0x2 2 1 [0 0] [13 4]] (REQUEST)
r 1.116903371 _28_ RTR  --- 0 AODV 48 [0 ffffffff 13 800] ------- [19:255 -1:255 29 0] [0x2 2 1 [0 0] [13 4]] (REQUEST)
r 1.116903374 _8_ RTR  --- 0 AODV 48 [0 ffffffff 13 800] ------- [19:255 -1:255 29 0] [0x2 2 1 [0 0] [13 4]] (REQUEST)
s 1.116996014 _2_ RTR  --- 0 AODV 48 [0 ffffffff d 800] ------- [2:255 -1:255 29 0] [0x2 2 1 [0 0] [13 4]] (REQUEST)
s 1.118236348 _24_ RTR  --- 0 AODV 48 [0 ffffffff d 800] ------- [24:255 -1:255 29 0] [0x2 2 1 [0 0] [13 4]] (REQUEST)
s 1.118441462 _14_ RTR  --- 0 AODV 48 [0 ffffffff d 800] ------- [14:255 -1:255 29 0] [0x2 2 1 [0 0] [13 4]] (REQUEST)
s 1.118647205 _3_ RTR  --- 0 AODV 48 [0 ffffffff d 800] ------- [3:255 -1:255 29 0] [0x2 2 1 [0 0] [13 4]] (REQUEST)
s 1.118901456 _18_ RTR  --- 0 AODV 48 [0 ffffffff d 800] ------- [18:255 -1:255 29 0] [0x2 2 1 [0 0] [13 4]] (REQUEST)
s 1.119333912 _34_ RTR  --- 0 AODV 48 [0 ffffffff 17 800] ------- [34:255 -1:255 28 0] [0x2 3 1 [0 0] [13 4]] (REQUEST)
r 1.119791501 _13_ RTR  --- 0 AODV 48 [0 ffffffff 8 800] ------- [8:255 -1:255 29 0] [0x2 2 1 [0 0] [13 4]] (REQUEST)
r 1.119791688 _7_ RTR  --- 0 AODV 48 [0 ffffffff 8 800] ------- [8:255 -1:255 29 0] [0x2 2 1 [0 0] [13 4]] (REQUEST)
r 1.119791778 _12_ RTR  --- 0 AODV 48 [0 ffffffff 8 800] ------- [8:255 -1:255 29 0] [0x2 2 1 [0 0] [13 4]] (REQUEST)
r 1.122116927 _12_ RTR  --- 0 AODV 48 [0 ffffffff 11 800] ------- [17:255 -1:255 29 0] [0x2 2 1 [0 0] [13 4]] (REQUEST)
r 1.122116927 _22_ RTR  --- 0 AODV 48 [0 ffffffff 11 800] ------- [17:255 -1:255 29 0] [0x2 2 1 [0 0] [13 4]] (REQUEST)
r 1.122117114 _16_ RTR  --- 0 AODV 48 [0 ffffffff 11 800] ------- [17:255 -1:255 29 0] [0x2 2 1 [0 0] [13 4]] (REQUEST)
r 1.122117114 _18_ RTR  --- 0 AODV 48 [0 ffffffff 11 800] ------- [17:255 -1:255 29 0] [0x2 2 1 [0 0] [13 4]] (REQUEST)
r 1.122117204 _13_ RTR  --- 0 AODV 48 [0 ffffffff 11 800] ------- [17:255 -1:255 29 0] [0x2 2 1 [0 0] [13 4]] (REQUEST)
r 1.122117204 _11_ RTR  --- 0 AODV 48 [0 ffffffff 11 800] ------- [17:255 -1:255 29 0] [0x2 2 1 [0 0] [13 4]] (REQUEST)
r 1.122117204 _21_ RTR  --- 0 AODV 48 [0 ffffffff 11 800] ------- [17:255 -1:255 29 0] [0x2 2 1 [0 0] [13 4]] (REQUEST)
r 1.122117204 _23_ RTR  --- 0 AODV 48 [0 ffffffff 11 800] ------- [17:255 -1:255 29 0] [0x2 2 1 [0 0] [13 4]] (REQUEST)
r 1.122117237 _27_ RTR  --- 0 AODV 48 [0 ffffffff 11 800] ------- [17:255 -1:255 29 0] [0x2 2 1 [0 0] [13 4]] (REQUEST)
r 1.122117241 _7_ RTR  --- 0 AODV 48 [0 ffffffff 11 800] ------- [17:255 -1:255 29 0] [0x2 2 1 [0 0] [13 4]] (REQUEST)
r 1.122117413 _26_ RTR  --- 0 AODV 48 [0 ffffffff 11 800] ------- [17:255 -1:255 29 0] [0x2 2 1 [0 0] [13 4]] (REQUEST)
r 1.122117413 _28_ RTR  --- 0 AODV 48 [0 ffffffff 11 800] ------- [17:255 -1:255 29 0] [0x2 2 1 [0 0] [13 4]] (REQUEST)
r 1.122117416 _8_ RTR  --- 0 AODV 48 [0 ffffffff 11 800] ------- [17:255 -1:255 29 0] [0x2 2 1 [0 0] [13 4]] (REQUEST)
r 1.122117416 _6_ RTR  --- 0 AODV 48 [0 ffffffff 11 800] ------- [17:255 -1:255 29 0] [0x2 2 1 [0 0] [13 4]] (REQUEST)
s 1.122945487 _28_ RTR  --- 0 AODV 48 [0 ffffffff 17 800] ------- [28:255 -1:255 28 0] [0x2 3 1 [0 0] [13 4]] (REQUEST)
s 1.122988455 _29_ RTR  --- 0 AODV 48 [0 ffffffff 17 800] ------- [29:255 -1:255 28 0] [0x2 3 1 [0 0] [13 4]] (REQUEST)
s 1.123381835 _32_ RTR  --- 0 AODV 48 [0 ffffffff 17 800] ------- [32:255 -1:255 28 0] [0x2 3 1 [0 0] [13 4]] (REQUEST)
s 1.123415828 _26_ RTR  --- 0 AODV 48 [0 ffffffff 11 800] ------- [26:255 -1:255 28 0] [0x2 3 1 [0 0] [13 4]] (REQUEST)
s 1.123508579 _27_ RTR  --- 0 AODV 48 [0 ffffffff 17 800] ------- [27:255 -1:255 28 0] [0x2 3 1 [0 0] [13 4]] (REQUEST)
r 1.124374324 _7_ RTR  --- 0 AODV 48 [0 ffffffff 2 800] ------- [2:255 -1:255 29 0] [0x2 2 1 [0 0] [13 4]] (REQUEST)
r 1.124374514 _1_ RTR  --- 0 AODV 48 [0 ffffffff 2 800] ------- [2:255 -1:255 29 0] [0x2 2 1 [0 0] [13 4]] (REQUEST)
r 1.124374514 _3_ RTR  --- 0 AODV 48 [0 ffffffff 2 800] ------- [2:255 -1:255 29 0] [0x2 2 1 [0 0] [13 4]] (REQUEST)
r 1.124374603 _6_ RTR  --- 0 AODV 48 [0 ffffffff 2 800] ------- [2:255 -1:255 29 0] [0x2 2 1 [0 0] [13 4]] (REQUEST)
r 1.124374603 _8_ RTR  --- 0 AODV 48 [0 ffffffff 2 800] ------- [2:255 -1:255 29 0] [0x2 2 1 [0 0] [13 4]] (REQUEST)
r 1.124374638 _12_ RTR  --- 0 AODV 48 [0 ffffffff 2 800] ------- [2:255 -1:255 29 0] [0x2 2 1 [0 0] [13 4]] (REQUEST)
r 1.124374813 _11_ RTR  --- 0 AODV 48 [0 ffffffff 2 800] ------- [2:255 -1:255 29 0] [0x2 2 1 [0 0] [13 4]] (REQUEST)
r 1.124374813 _13_ RTR  --- 0 AODV 48 [0 ffffffff 2 800] ------- [2:255 -1:255 29 0] [0x2 2 1 [0 0] [13 4]] (REQUEST)
s 1.125135236 _1_ RTR  --- 0 AODV 48 [0 ffffffff 2 800] ------- [1:255 -1:255 28 0] [0x2 3 1 [0 0] [13 4]] (REQUEST)
s 1.126045411 _11_ RTR  --- 0 AODV 48 [0 ffffffff 11 800] ------- [11:255 -1:255 28 0] [0x2 3 1 [0 0] [13 4]] (REQUEST)
s 1.126405439 _12_ AGT  --- 1 tcp 40 [0 0 0 0] ------- [12:0 20:0 32 0] [0 0] 0 0
r 1.126405439 _12_ RTR  --- 1 tcp 40 [0 0 0 0] ------- [12:0 20:0 32 0] [0 0] 0 0
s 1.126405439 _12_ RTR  --- 0 AODV 48 [0 0 0 0] ------- [12:255 -1:255 30 0] [0x2 1 1 [20 0] [12 4]] (REQUEST)
r 1.126698138 _21_ RTR  --- 0 AODV 48 [0 ffffffff 1a 800] ------- [26:255 -1:255 28 0] [0x2 3 1 [0 0] [13 4]] (REQUEST)
r 1.126698142 _31_ RTR  --- 0 AODV 48 [0 ffffffff 1a 800] ------- [26:255 -1:255 28 0] [0x2 3 1 [0 0] [13 4]] (REQUEST)
r 1.126698328 _25_ RTR  --- 0 AODV 48 [0 ffffffff 1a 800] ------- [26:255 -1:255 28 0] [0x2 3 1 [0 0] [13 4]] (REQUEST)
r 1.126698417 _20_ RTR  --- 0 AODV 48 [0 ffffffff 1a 800] ------- [26:255 -1:255 28 0] [0x2 3 1 [0 0] [13 4]] (REQUEST)
r 1.126698418 _30_ RTR  --- 0 AODV 48 [0 ffffffff 1a 800] ------- [26:255 -1:255 28 0] [0x2 3 1 [0 0] [13 4]] (REQUEST)
r 1.126698455 _36_ RTR  --- 0 AODV 48 [0 ffffffff 1a 800] ------- [26:255 -1:255 28 0] [0x2 3 1 [0 0] [13 4]] (REQUEST)
r 1.126698627 _15_ RTR  --- 0 AODV 48 [0 ffffffff 1a 800] ------- [26:255 -1:255 28 0] [0x2 3 1 [0 0] [13 4]] (REQUEST)
r 1.126698630 _35_ RTR  --- 0 AODV 48 [0 ffffffff 1a 800] ------- [26:255 -1:255 28 0] [0x2 3 1 [0 0] [13 4]] (REQUEST)
r 1.126779775 _9_ RTR  --- 0 AODV 48 [0 ffffffff e 800] ------- [14:255 -1:255 29 0] [0x2 2 1 [0 0] [13 4]] (REQUEST)
r 1.126791769 _23_ RTR  --- 0 AODV 48 [0 ffffffff 12 800] ------- [18:255 -1:255 29 0] [0x2 2 1 [0 0] [13 4]] (REQUEST)
s 1.127096610 _36_ RTR  --- 0 AODV 48 [0 ffffffff 1a 800] ------- [36:255 -1:255 27 0] [0x2 4 1 [0 0] [13 4]] (REQUEST)
s 1.127551927 _21_ RTR  --- 0 AODV 48 [0 ffffffff 11 800] ------- [21:255 -1:255 28 0] [0x2 3 1 [0 0] [13 4]] (REQUEST)
s 1.127838335 _16_ AGT  --- 2 tcp 40 [0 0 0 0] ------- [16:0 19:0 32 0] [0 0] 0 0
r 1.127838335 _16_ RTR  --- 2 tcp 40 [0 0 0 0] ------- [16:0 19:0 32 0] [0 0] 0 0
s 1.127838335 _16_ RTR  --- 0 AODV 48 [0 0 0 0] ------- [16:255 -1:255 30 0] [0x2 1 1 [19 0] [16 4]] (REQUEST)
s 1.127919738 _6_ RTR  --- 0 AODV 48 [0 ffffffff 11 800] ------- [6:255 -1:255 28 0] [0x2 3 1 [0 0] [13 4]] (REQUEST)
r 1.129032149 _27_ RTR  --- 0 AODV 48 [0 ffffffff 20 800] ------- [32:255 -1:255 28 0] [0x2 3 1 [0 0] [13 4]] (REQUEST)
r 1.129032149 _37_ RTR  --- 0 AODV 48 [0 ffffffff 20 800] ------- [32:255 -1:255 28 0] [0x2 3 1 [0 0] [13 4]] (REQUEST)
r 1.129032335 _31_ RTR  --- 0 AODV 48 [0 ffffffff 20 800] ------- [32:255 -1:255 28 0] [0x2 3 1 [0 0] [13 4]] (REQUEST)
r 1.129032335 _33_ RTR  --- 0 AODV 48 [0 ffffffff 20 800] ------- [32:255 -1:255 28 0] [0x2 3 1 [0 0] [13 4]] (REQUEST)
r 1.129032425 _28_ RTR  --- 0 AODV 48 [0 ffffffff 20 800] ------- [32:255 -1:255 28 0] [0x2 3 1 [0 0] [13 4]] (REQUEST)
r 1.129032425 _26_ RTR  --- 0 AODV 48 [0 ffffffff 20 800] ------- [32:255 -1:255 28 0] [0x2 3 1 [0 0] [13 4]] (REQUEST)
r 1.129032425 _36_ RTR  --- 0 AODV 48 [0 ffffffff 20 800] ------- [32:255 -1:255 28 0] [0x2 3 1 [0 0] [13 4]] (REQUEST)
r 1.129032425 _38_ RTR  --- 0 AODV 48 [0 ffffffff 20 800] ------- [32:255 -1:255 28 0] [0x2 3 1 [0 0] [13 4]] (REQUEST)
r 1.129032459 _22_ RTR  --- 0 AODV 48 [0 ffffffff 20 800] ------- [32:255 -1:255 28 0] [0x2 3 1 [0 0] [13 4]] (REQUEST)
s 1.129585716 _37_ RTR  --- 0 AODV 48 [0 ffffffff 20 800] ------- [37:255 -1:255 27 0] [0x2 4 1 [0 0] [13 4]] (REQUEST)
s 1.130230809 _20_ RTR  --- 0 AODV 48 [0 ffffffff 1a 800] ------- [20:255 -1:255 27 0] [0x2 4 1 [0 0] [13 4]] (REQUEST)
r 1.130337546 _6_ RTR  --- 0 AODV 48 [0 ffffffff 1 800] ------- [1:255 -1:255 28 0] [0x2 3 1 [0 0] [13 4]] (REQUEST)
r 1.130337736 _0_ RTR  --- 0 AODV 48 [0 ffffffff 1 800] ------- [1:255 -1:255 28 0] [0x2 3 1 [0 0] [13 4]] (REQUEST)
s 1.130337736 _0_ RTR  --- 0 AODV 44 [0 0 0 0] ------- [0:255 13:255 30 1] [0x4 1 [0 4] 10.000000] (REPLY)
r 1.130337824 _5_ RTR  --- 0 AODV 48 [0 ffffffff 1 800] ------- [1:255 -1:255 28 0] [0x2 3 1 [0 0] [13 4]] (REQUEST)
s 1.130417568 _16_ RTR  --- 0 AODV 48 [0 ffffffff 11 800] ------- [16:255 -1:255 28 0] [0x2 3 1 [0 0] [13 4]] (REQUEST)
r 1.130505515 _8_ RTR  --- 0 AODV 48 [0 ffffffff 3 800] ------- [3:255 -1:255 29 0] [0x2 2 1 [0 0] [13 4]] (REQUEST)
r 1.130505705 _4_ RTR  --- 0 AODV 48 [0 ffffffff 3 800] ------- [3:255 -1:255 29 0] [0x2 2 1 [0 0] [13 4]] (REQUEST)
r 1.130505793 _9_ RTR  --- 0 AODV 48 [0 ffffffff 3 800] ------- [3:255 -1:255 29 0] [0x2 2 1 [0 0] [13 4]] (REQUEST)
s 1.131024934 _35_ RTR  --- 0 AODV 48 [0 ffffffff 1a 800] ------- [35:255 -1:255 27 0] [0x2 4 1 [0 0] [13 4]] (REQUEST)
r 1.131320225 _29_ RTR  --- 0 AODV 48 [0 ffffffff 22 800] ------- [34:255 -1:255 28 0] [0x2 3 1 [0 0] [13 4]] (REQUEST)
r 1.131320225 _39_ RTR  --- 0 AODV 48 [0 ffffffff 22 800] ------- [34:255 -1:255 28 0] [0x2 3 1 [0 0] [13 4]] (REQUEST)
r 1.131320412 _33_ RTR  --- 0 AODV 48 [0 ffffffff 22 800] ------- [34:255 -1:255 28 0] [0x2 3 1 [0 0] [13 4]] (REQUEST)
r 1.131320502 _28_ RTR  --- 0 AODV 48 [0 ffffffff 22 800] ------- [34:255 -1:255 28 0] [0x2 3 1 [0 0] [13 4]] (REQUEST)
r 1.131320502 _38_ RTR  --- 0 AODV 48 [0 ffffffff 22 800] ------- [34:255 -1:255 28 0] [0x2 3 1 [0 0] [13 4]] (REQUEST)
r 1.131320535 _24_ RTR  --- 0 AODV 48 [0 ffffffff 22 800] ------- [34:255 -1:255 28 0] [0x2 3 1 [0 0] [13 4]] (REQUEST)
s 1.131389542 _31_ RTR  --- 0 AODV 48 [0 ffffffff 1a 800] ------- [31:255 -1:255 27 0] [0x2 4 1 [0 0] [13 4]] (REQUEST)
s 1.131474023 _30_ RTR  --- 0 AODV 48 [0 ffffffff 1a 800] ------- [30:255 -1:255 27 0] [0x2 4 1 [0 0] [13 4]] (REQUEST)
r 1.133513119 _25_ RTR  --- 0 AODV 48 [0 ffffffff 14 800] ------- [20:255 -1:255 27 0] [0x2 4 1 [0 0] [13 4]] (REQUEST)
r 1.133513123 _15_ RTR  --- 0 AODV 48 [0 ffffffff 14 800] ------- [20:255 -1:255 27 0] [0x2 4 1 [0 0] [13 4]] (REQUEST)
r 1.133513309 _21_ RTR  --- 0 AODV 48 [0 ffffffff 14 800] ------- [20:255 -1:255 27 0] [0x2 4 1 [0 0] [13 4]] (REQUEST)
r 1.133513397 _26_ RTR  --- 0 AODV 48 [0 ffffffff 14 800] ------- [20:255 -1:255 27 0] [0x2 4 1 [0 0] [13 4]] (REQUEST)
r 1.133513433 _30_ RTR  --- 0 AODV 48 [0 ffffffff 14 800] ------- [20:255 -1:255 27 0] [0x2 4 1 [0 0] [13 4]] (REQUEST)
r 1.133513608 _31_ RTR  --- 0 AODV 48 [0 ffffffff 14 800] ------- [20:255 -1:255 27 0] [0x2 4 1 [0 0] [13 4]] (REQUEST)
r 1.133570048 _1_ RTR  --- 0 AODV 48 [0 ffffffff 6 800] ------- [6:255 -1:255 28 0] [0x2 3 1 [0 0] [13 4]] (REQUEST)
r 1.133570051 _11_ RTR  --- 0 AODV 48 [0 ffffffff 6 800] ------- [6:255 -1:255 28 0] [0x2 3 1 [0 0] [13 4]] (REQUEST)
r 1.133570238 _5_ RTR  --- 0 AODV 48 [0 ffffffff 6 800] ------- [6:255 -1:255 28 0] [0x2 3 1 [0 0] [13 4]] (REQUEST)
r 1.133570238 _7_ RTR  --- 0 AODV 48 [0 ffffffff 6 800] ------- [6:255 -1:255 28 0] [0x2 3 1 [0 0] [13 4]] (REQUEST)
r 1.133570326 _2_ RTR  --- 0 AODV 48 [0 ffffffff 6 800] ------- [6:255 -1:255 28 0] [0x2 3 1 [0 0] [13 4]] (REQUEST)
r 1.133570326 _0_ RTR  --- 0 AODV 48 [0 ffffffff 6 800] ------- [6:255 -1:255 28 0] [0x2 3 1 [0 0] [13 4]] (REQUEST)
r 1.133570328 _12_ RTR  --- 0 AODV 48 [0 ffffffff 6 800] ------- [6:255 -1:255 28 0] [0x2 3 1 [0 0] [13 4]] (REQUEST)
s 1.134196344 _38_ RTR  --- 0 AODV 48 [0 ffffffff 20 800] ------- [38:255 -1:255 27 0] [0x2 4 1 [0 0] [13 4]] (REQUEST)
s 1.135681610 _25_ RTR  --- 0 AODV 48 [0 ffffffff 1a 800] ------- [25:255 -1:255 27 0] [0x2 4 1 [0 0] [13 4]] (REQUEST)
r 1.136164336 _25_ RTR  --- 0 AODV 48 [0 ffffffff 1e 800] ------- [30:255 -1:255 27 0] [0x2 4 1 [0 0] [13 4]] (REQUEST)
r 1.136164336 _35_ RTR  --- 0 AODV 48 [0 ffffffff 1e 800] ------- [30:255 -1:255 27 0] [0x2 4 1 [0 0] [13 4]] (REQUEST)
r 1.136164523 _31_ RTR  --- 0 AODV 48 [0 ffffffff 1e 800] ------- [30:255 -1:255 27 0] [0x2 4 1 [0 0] [13 4]] (REQUEST)
r 1.136164613 _36_ RTR  --- 0 AODV 48 [0 ffffffff 1e 800] ------- [30:255 -1:255 27 0] [0x2 4 1 [0 0] [13 4]] (REQUEST)
r 1.136175724 _6_ RTR  --- 0 AODV 48 [0 ffffffff b 800] ------- [11:255 -1:255 28 0] [0x2 3 1 [0 0] [13 4]] (REQUEST)
r 1.136175724 _16_ RTR  --- 0 AODV 48 [0 ffffffff b 800] ------- [11:255 -1:255 28 0] [0x2 3 1 [0 0] [13 4]] (REQUEST)
r 1.136175911 _10_ RTR  --- 0 AODV 48 [0 ffffffff b 800] ------- [11:255 -1:255 28 0] [0x2 3 1 [0 0] [13 4]] (REQUEST)
r 1.136212846 _7_ RTR  --- 0 AODV 48 [0 ffffffff c 800] ------- [12:255 -1:255 30 0] [0x2 1 1 [20 0] [12 4]] (REQUEST)
r 1.136212846 _17_ RTR  --- 0 AODV 48 [0 ffffffff c 800] ------- [12:255 -1:255 30 0] [0x2 1 1 [20 0] [12 4]] (REQUEST)
r 1.136213032 _13_ RTR  --- 0 AODV 48 [0 ffffffff c 800] ------- [12:255 -1:255 30 0] [0x2 1 1 [20 0] [12 4]] (REQUEST)
s 1.136560418 _13_ RTR  --- 0 AODV 48 [0 ffffffff c 800] ------- [13:255 -1:255 29 0] [0x2 2 1 [20 0] [12 4]] (REQUEST)
s 1.136571193 _15_ RTR  --- 0 AODV 48 [0 ffffffff 1a 800] ------- [15:255 -1:255 27 0] [0x2 4 1 [0 0] [13 4]] (REQUEST)
s 1.138725746 _17_ RTR  --- 0 AODV 48 [0 ffffffff c 800] ------- [17:255 -1:255 29 0] [0x2 2 1 [20 0] [12 4]] (REQUEST)
s 1.138896847 _5_ RTR  --- 0 AODV 48 [0 ffffffff 1 800] ------- [5:255 -1:255 27 0] [0x2 4 1 [0 0] [13 4]] (REQUEST)
r 1.139206658 _33_ RTR  --- 0 AODV 48 [0 ffffffff 26 800] ------- [38:255 -1:255 27 0] [0x2 4 1 [0 0] [13 4]] (REQUEST)
r 1.139206844 _37_ RTR  --- 0 AODV 48 [0 ffffffff 26 800] ------- [38:255 -1:255 27 0] [0x2 4 1 [0 0] [13 4]] (REQUEST)
r 1.139206844 _39_ RTR  --- 0 AODV 48 [0 ffffffff 26 800] ------- [38:255 -1:255 27 0] [0x2 4 1 [0 0] [13 4]] (REQUEST)
r 1.139206934 _34_ RTR  --- 0 AODV 48 [0 ffffffff 26 800] ------- [38:255 -1:255 27 0] [0x2 4 1 [0 0] [13 4]] (REQUEST)
r 1.139206971 _28_ RTR  --- 0 AODV 48 [0 ffffffff 26 800] ------- [38:255 -1:255 27 0] [0x2 4 1 [0 0] [13 4]] (REQUEST)
r 1.139207146 _29_ RTR  --- 0 AODV 48 [0 ffffffff 26 800] ------- [38:255 -1:255 27 0] [0x2 4 1 [0 0] [13 4]] (REQUEST)
r 1.139283920 _20_ RTR  --- 0 AODV 48 [0 ffffffff 19 800] ------- [25:255 -1:255 27 0] [0x2 4 1 [0 0] [13 4]] (REQUEST)
r 1.139283923 _30_ RTR  --- 0 AODV 48 [0 ffffffff 19 800] ------- [25:255 -1:255 27 0] [0x2 4 1 [0 0] [13 4]] (REQUEST)
r 1.139284110 _26_ RTR  --- 0 AODV 48 [0 ffffffff 19 800] ------- [25:255 -1:255 27 0] [0x2 4 1 [0 0] [13 4]] (REQUEST)
r 1.139284198 _21_ RTR  --- 0 AODV 48 [0 ffffffff 19 800] ------- [25:255 -1:255 27 0] [0x2 4 1 [0 0] [13 4]] (REQUEST)
r 1.139284233 _15_ RTR  --- 0 AODV 48 [0 ffffffff 19 800] ------- [25:255 -1:255 27 0] [0x2 4 1 [0 0] [13 4]] (REQUEST)
r 1.139284237 _35_ RTR  --- 0 AODV 48 [0 ffffffff 19 800] ------- [25:255 -1:255 27 0] [0x2 4 1 [0 0] [13 4]] (REQUEST)
r 1.139284409 _16_ RTR  --- 0 AODV 48 [0 ffffffff 19 800] ------- [25:255 -1:255 27 0] [0x2 4 1 [0 0] [13 4]] (REQUEST)
s 1.139746725 _39_ RTR  --- 0 AODV 48 [0 ffffffff 22 800] ------- [39:255 -1:255 27 0] [0x2 4 1 [0 0] [13 4]] (REQUEST)
r 1.141762731 _8_ RTR  --- 0 AODV 48 [0 ffffffff d 800] ------- [13:255 -1:255 29 0] [0x2 2 1 [20 0] [12 4]] (REQUEST)
r 1.141762731 _18_ RTR  --- 0 AODV 48 [0 ffffffff d 800] ------- [13:255 -1:255 29 0] [0x2 2 1 [20 0] [12 4]] (REQUEST)
r 1.141762918 _14_ RTR  --- 0 AODV 48 [0 ffffffff d 800] ------- [13:255 -1:255 29 0] [0x2 2 1 [20 0] [12 4]] (REQUEST)
r 1.141763008 _9_ RTR  --- 0 AODV 48 [0 ffffffff d 800] ------- [13:255 -1:255 29 0] [0x2 2 1 [20 0] [12 4]] (REQUEST)
r 1.141763041 _3_ RTR  --- 0 AODV 48 [0 ffffffff d 800] ------- [13:255 -1:255 29 0] [0x2 2 1 [20 0] [12 4]] (REQUEST)
r 1.141763217 _4_ RTR  --- 0 AODV 48 [0 ffffffff d 800] ------- [13:255 -1:255 29 0] [0x2 2 1 [20 0] [12 4]] (REQUEST)
r 1.141773506 _10_ RTR  --- 0 AODV 48 [0 ffffffff f 800] ------- [15:255 -1:255 27 0] [0x2 4 1 [0 0] [13 4]] (REQUEST)
r 1.141773506 _20_ RTR  --- 0 AODV 48 [0 ffffffff f 800] ------- [15:255 -1:255 27 0] [0x2 4 1 [0 0] [13 4]] (REQUEST)
r 1.141773820 _5_ RTR  --- 0 AODV 48 [0 ffffffff f 800] ------- [15:255 -1:255 27 0] [0x2 4 1 [0 0] [13 4]] (REQUEST)
r 1.141916552 _27_ RTR  --- 0 AODV 48 [0 ffffffff 16 800] ------- [22:255 -1:255 29 0] [0x2 2 1 [0 0] [13 4]] (REQUEST)
r 1.141916556 _17_ RTR  --- 0 AODV 48 [0 ffffffff 16 800] ------- [22:255 -1:255 29 0] [0x2 2 1 [0 0] [13 4]] (REQUEST)
r 1.141916866 _32_ RTR  --- 0 AODV 48 [0 ffffffff 16 800] ------- [22:255 -1:255 29 0] [0x2 2 1 [0 0] [13 4]] (REQUEST)
s 1.141960399 _7_ RTR  --- 0 AODV 48 [0 ffffffff c 800] ------- [7:255 -1:255 29 0] [0x2 2 1 [20 0] [12 4]] (REQUEST)
s 1.142528200 _4_ RTR  --- 0 AODV 48 [0 ffffffff d 800] ------- [4:255 -1:255 28 0] [0x2 3 1 [20 0] [12 4]] (REQUEST)
s 1.142613405 _14_ RTR  --- 0 AODV 48 [0 ffffffff d 800] ------- [14:255 -1:255 28 0] [0x2 3 1 [20 0] [12 4]] (REQUEST)
s 1.142697632 _10_ RTR  --- 0 AODV 48 [0 ffffffff b 800] ------- [10:255 -1:255 27 0] [0x2 4 1 [0 0] [13 4]] (REQUEST)
s 1.142743887 _18_ RTR  --- 0 AODV 48 [0 ffffffff d 800] ------- [18:255 -1:255 28 0] [0x2 3 1 [20 0] [12 4]] (REQUEST)
r 1.144061052 _26_ RTR  --- 0 AODV 48 [0 ffffffff 15 800] ------- [21:255 -1:255 28 0] [0x2 3 1 [0 0] [13 4]] (REQUEST)
r 1.144061056 _16_ RTR  --- 0 AODV 48 [0 ffffffff 15 800] ------- [21:255 -1:255 28 0] [0x2 3 1 [0 0] [13 4]] (REQUEST)
r 1.144061242 _20_ RTR  --- 0 AODV 48 [0 ffffffff 15 800] ------- [21:255 -1:255 28 0] [0x2 3 1 [0 0] [13 4]] (REQUEST)
r 1.144061242 _22_ RTR  --- 0 AODV 48 [0 ffffffff 15 800] ------- [21:255 -1:255 28 0] [0x2 3 1 [0 0] [13 4]] (REQUEST)
r 1.144061330 _25_ RTR  --- 0 AODV 48 [0 ffffffff 15 800] ------- [21:255 -1:255 28 0] [0x2 3 1 [0 0] [13 4]] (REQUEST)
r 1.144061330 _27_ RTR  --- 0 AODV 48 [0 ffffffff 15 800] ------- [21:255 -1:255 28 0] [0x2 3 1 [0 0] [13 4]] (REQUEST)
r 1.144061332 _17_ RTR  --- 0 AODV 48 [0 ffffffff 15 800] ------- [21:255 -1:255 28 0] [0x2 3 1 [0 0] [13 4]] (REQUEST)
r 1.144061332 _15_ RTR  --- 0 AODV 48 [0 ffffffff 15 800] ------- [21:255 -1:255 28 0] [0x2 3 1 [0 0] [13 4]] (REQUEST)
r 1.144061366 _31_ RTR  --- 0 AODV 48 [0 ffffffff 15 800] ------- [21:255 -1:255 28 0] [0x2 3 1 [0 0] [13 4]] (REQUEST)
r 1.144061369 _11_ RTR  --- 0 AODV 48 [0 ffffffff 15 800] ------- [21:255 -1:255 28 0] [0x2 3 1 [0 0] [13 4]] (REQUEST)
r 1.144061541 _30_ RTR  --- 0 AODV 48 [0 ffffffff 15 800] ------- [21:255 -1:255 28 0] [0x2 3 1 [0 0] [13 4]] (REQUEST)
r 1.144061541 _32_ RTR  --- 0 AODV 48 [0 ffffffff 15 800] ------- [21:255 -1:255 28 0] [0x2 3 1 [0 0] [13 4]] (REQUEST)
r 1.144061544 _12_ RTR  --- 0 AODV 48 [0 ffffffff 15 800] ------- [21:255 -1:255 28 0] [0x2 3 1 [0 0] [13 4]] (REQUEST)
r 1.144061544 _10_ RTR  --- 0 AODV 48 [0 ffffffff 15 800] ------- [21:255 -1:255 28 0] [0x2 3 1 [0 0] [13 4]] (REQUEST)
s 1.145485170 _8_ RTR  --- 0 AODV 48 [0 ffffffff d 800] ------- [8:255 -1:255 28 0] [0x2 3 1 [20 0] [12 4]] (REQUEST)
r 1.146416648 _11_ RTR  --- 0 AODV 48 [0 ffffffff 10 800] ------- [16:255 -1:255 28 0] [0x2 3 1 [0 0] [13 4]] (REQUEST)
r 1.146416648 _21_ RTR  --- 0 AODV 48 [0 ffffffff 10 800] ------- [16:255 -1:255 28 0] [0x2 3 1 [0 0] [13 4]] (REQUEST)
r 1.146416925 _20_ RTR  --- 0 AODV 48 [0 ffffffff 10 800] ------- [16:255 -1:255 28 0] [0x2 3 1 [0 0] [13 4]] (REQUEST)
s 1.146520173 _9_ RTR  --- 0 AODV 48 [0 ffffffff d 800] ------- [9:255 -1:255 28 0] [0x2 3 1 [20 0] [12 4]] (REQUEST)
r 1.146579800 _33_ RTR  --- 0 AODV 48 [0 ffffffff 1c 800] ------- [28:255 -1:255 28 0] [0x2 3 1 [0 0] [13 4]] (REQUEST)
s 1.146610139 _3_ RTR  --- 0 AODV 48 [0 ffffffff d 800] ------- [3:255 -1:255 28 0] [0x2 3 1 [20 0] [12 4]] (REQUEST)
r 1.148987945 _5_ RTR  --- 0 AODV 48 [0 ffffffff a 800] ------- [10:255 -1:255 27 0] [0x2 4 1 [0 0] [13 4]] (REQUEST)
r 1.148987945 _15_ RTR  --- 0 AODV 48 [0 ffffffff a 800] ------- [10:255 -1:255 27 0] [0x2 4 1 [0 0] [13 4]] (REQUEST)
r 1.148988132 _11_ RTR  --- 0 AODV 48 [0 ffffffff a 800] ------- [10:255 -1:255 27 0] [0x2 4 1 [0 0] [13 4]] (REQUEST)
r 1.148988222 _6_ RTR  --- 0 AODV 48 [0 ffffffff a 800] ------- [10:255 -1:255 27 0] [0x2 4 1 [0 0] [13 4]] (REQUEST)
r 1.148988222 _16_ RTR  --- 0 AODV 48 [0 ffffffff a 800] ------- [10:255 -1:255 27 0] [0x2 4 1 [0 0] [13 4]] (REQUEST)
r 1.148988255 _0_ RTR  --- 0 AODV 48 [0 ffffffff a 800] ------- [10:255 -1:255 27 0] [0x2 4 1 [0 0] [13 4]] (REQUEST)
r 1.148988258 _20_ RTR  --- 0 AODV 48 [0 ffffffff a 800] ------- [10:255 -1:255 27 0] [0x2 4 1 [0 0] [13 4]] (REQUEST)
r 1.148988431 _1_ RTR  --- 0 AODV 48 [0 ffffffff a 800] ------- [10:255 -1:255 27 0] [0x2 4 1 [0 0] [13 4]] (REQUEST)
r 1.148988433 _21_ RTR  --- 0 AODV 48 [0 ffffffff a 800] ------- [10:255 -1:255 27 0] [0x2 4 1 [0 0] [13 4]] (REQUEST)
r 1.149877039 _34_ RTR  --- 0 AODV 48 [0 ffffffff 27 800] ------- [39:255 -1:255 27 0] [0x2 4 1 [0 0] [13 4]] (REQUEST)
r 1.149877225 _38_ RTR  --- 0 AODV 48 [0 ffffffff 27 800] ------- [39:255 -1:255 27 0] [0x2 4 1 [0 0] [13 4]] (REQUEST)
r 1.149877316 _33_ RTR  --- 0 AODV 48 [0 ffffffff 27 800] ------- [39:255 -1:255 27 0] [0x2 4 1 [0 0] [13 4]] (REQUEST)
r 1.149877352 _29_ RTR  --- 0 AODV 48 [0 ffffffff 27 800] ------- [39:255 -1:255 27 0] [0x2 4 1 [0 0] [13 4]] (REQUEST)
r 1.150762483 _4_ RTR  --- 0 AODV 48 [0 ffffffff 9 800] ------- [9:255 -1:255 28 0] [0x2 3 1 [20 0] [12 4]] (REQUEST)
r 1.150762487 _14_ RTR  --- 0 AODV 48 [0 ffffffff 9 800] ------- [9:255 -1:255 28 0] [0x2 3 1 [20 0] [12 4]] (REQUEST)
r 1.150762673 _8_ RTR  --- 0 AODV 48 [0 ffffffff 9 800] ------- [9:255 -1:255 28 0] [0x2 3 1 [20 0] [12 4]] (REQUEST)
r 1.150762762 _3_ RTR  --- 0 AODV 48 [0 ffffffff 9 800] ------- [9:255 -1:255 28 0] [0x2 3 1 [20 0] [12 4]] (REQUEST)
r 1.150762763 _13_ RTR  --- 0 AODV 48 [0 ffffffff 9 800] ------- [9:255 -1:255 28 0] [0x2 3 1 [20 0] [12 4]] (REQUEST)
r 1.150762800 _19_ RTR  --- 0 AODV 48 [0 ffffffff 9 800] ------- [9:255 -1:255 28 0] [0x2 3 1 [20 0] [12 4]] (REQUEST)
r 1.152330924 _31_ RTR  --- 0 AODV 48 [0 ffffffff 24 800] ------- [36:255 -1:255 27 0] [0x2 4 1 [0 0] [13 4]] (REQUEST)
r 1.152331110 _35_ RTR  --- 0 AODV 48 [0 ffffffff 24 800] ------- [36:255 -1:255 27 0] [0x2 4 1 [0 0] [13 4]] (REQUEST)
r 1.152331110 _37_ RTR  --- 0 AODV 48 [0 ffffffff 24 800] ------- [36:255 -1:255 27 0] [0x2 4 1 [0 0] [13 4]] (REQUEST)
r 1.152331200 _32_ RTR  --- 0 AODV 48 [0 ffffffff 24 800] ------- [36:255 -1:255 27 0] [0x2 4 1 [0 0] [13 4]] (REQUEST)
r 1.152331200 _30_ RTR  --- 0 AODV 48 [0 ffffffff 24 800] ------- [36:255 -1:255 27 0] [0x2 4 1 [0 0] [13 4]] (REQUEST)
r 1.153183480 _3_ RTR  --- 0 AODV 48 [0 ffffffff 8 800] ------- [8:255 -1:255 28 0] [0x2 3 1 [20 0] [12 4]] (REQUEST)
r 1.153183484 _13_ RTR  --- 0 AODV 48 [0 ffffffff 8 800] ------- [8:255 -1:255 28 0] [0x2 3 1 [20 0] [12 4]] (REQUEST)
r 1.153183670 _9_ RTR  --- 0 AODV 48 [0 ffffffff 8 800] ------- [8:255 -1:255 28 0] [0x2 3 1 [20 0] [12 4]] (REQUEST)
r 1.153183759 _4_ RTR  --- 0 AODV 48 [0 ffffffff 8 800] ------- [8:255 -1:255 28 0] [0x2 3 1 [20 0] [12 4]] (REQUEST)
r 1.153306709 _2_ RTR  --- 0 AODV 48 [0 ffffffff 7 800] ------- [7:255 -1:255 29 0] [0x2 2 1 [20 0] [12 4]] (REQUEST)
r 1.153306712 _12_ RTR  --- 0 AODV 48 [0 ffffffff 7 800] ------- [7:255 -1:255 29 0] [0x2 2 1 [20 0] [12 4]] (REQUEST)
r 1.153315157 _0_ RTR  --- 0 AODV 48 [0 ffffffff 5 800] ------- [5:255 -1:255 27 0] [0x2 4 1 [0 0] [13 4]] (REQUEST)
r 1.153315160 _10_ RTR  --- 0 AODV 48 [0 ffffffff 5 800] ------- [5:255 -1:255 27 0] [0x2 4 1 [0 0] [13 4]] (REQUEST)
r 1.155491247 _30_ RTR  --- 0 AODV 48 [0 ffffffff 23 800] ------- [35:255 -1:255 27 0] [0x2 4 1 [0 0] [13 4]] (REQUEST)
r 1.155491434 _36_ RTR  --- 0 AODV 48 [0 ffffffff 23 800] ------- [35:255 -1:255 27 0] [0x2 4 1 [0 0] [13 4]] (REQUEST)
r 1.155491524 _31_ RTR  --- 0 AODV 48 [0 ffffffff 23 800] ------- [35:255 -1:255 27 0] [0x2 4 1 [0 0] [13 4]] (REQUEST)
r 1.155491560 _25_ RTR  --- 0 AODV 48 [0 ffffffff 23 800] ------- [35:255 -1:255 27 0] [0x2 4 1 [0 0] [13 4]] (REQUEST)
r 1.155491735 _26_ RTR  --- 0 AODV 48 [0 ffffffff 23 800] ------- [35:255 -1:255 27 0] [0x2 4 1 [0 0] [13 4]] (REQUEST)