n -t * -s 0  -x 0 -y 0 -Z 0 -z 20  -v circle -c black
n -t * -s 1  -x 0 -y 50 -Z 0 -z 20  -v circle -c black
n -t * -s 2  -x 0 -y 100 -Z 0 -z 20  -v circle -c black
n -t * -s 3  -x 0 -y 150 -Z 0 -z 20  -v circle -c black
n -t * -s 4  -x 0 -y 200 -Z 0 -z 20  -v circle -c black
n -t * -s 5  -x 31 -y 0 -Z 0 -z 20  -v circle -c black
n -t * -s 6  -x 31 -y 50 -Z 0 -z 20  -v circle -c black
n -t * -s 7  -x 31 -y 100 -Z 0 -z 20  -v circle -c black
n -t * -s 8  -x 31 -y 150 -Z 0 -z 20  -v circle -c black
n -t * -s 9  -x 31 -y 200 -Z 0 -z 20  -v circle -c black
n -t * -s 10  -x 62 -y 0 -Z 0 -z 20  -v circle -c black
n -t * -s 11  -x 62 -y 50 -Z 0 -z 20  -v circle -c black
n -t * -s 12  -x 62 -y 100 -Z 0 -z 20  -v circle -c black
n -t * -s 13  -x 62 -y 150 -Z 0 -z 20  -v circle -c black
n -t * -s 14  -x 62 -y 200 -Z 0 -z 20  -v circle -c black
n -t * -s 15  -x 93 -y 0 -Z 0 -z 20  -v circle -c black
n -t * -s 16  -x 93 -y 50 -Z 0 -z 20  -v circle -c black
n -t * -s 17  -x 93 -y 100 -Z 0 -z 20  -v circle -c black
n -t * -s 18  -x 93 -y 150 -Z 0 -z 20  -v circle -c black
n -t * -s 19  -x 93 -y 200 -Z 0 -z 20  -v circle -c black
n -t * -s 20  -x 125 -y 0 -Z 0 -z 20  -v circle -c black
n -t * -s 21  -x 125 -y 50 -Z 0 -z 20  -v circle -c black
n -t * -s 22  -x 125 -y 100 -Z 0 -z 20  -v circle -c black
n -t * -s 23  -x 125 -y 150 -Z 0 -z 20  -v circle -c black
n -t * -s 24  -x 125 -y 200 -Z 0 -z 20  -v circle -c black
n -t * -s 25  -x 156 -y 0 -Z 0 -z 20  -v circle -c black
n -t * -s 26  -x 156 -y 50 -Z 0 -z 20  -v circle -c black
n -t * -s 27  -x 156 -y 100 -Z 0 -z 20  -v circle -c black
n -t * -s 28  -x 156 -y 150 -Z 0 -z 20  -v circle -c black
n -t * -s 29  -x 156 -y 200 -Z 0 -z 20  -v circle -c black
n -t * -s 30  -x 187 -y 0 -Z 0 -z 20  -v circle -c black
n -t * -s 31  -x 187 -y 50 -Z 0 -z 20  -v circle -c black
n -t * -s 32  -x 187 -y 100 -Z 0 -z 20  -v circle -c black
n -t * -s 33  -x 187 -y 150 -Z 0 -z 20  -v circle -c black
n -t * -s 34  -x 187 -y 200 -Z 0 -z 20  -v circle -c black
n -t * -s 35  -x 218 -y 0 -Z 0 -z 20  -v circle -c black
n -t * -s 36  -x 218 -y 50 -Z 0 -z 20  -v circle -c black
n -t * -s 37  -x 218 -y 100 -Z 0 -z 20  -v circle -c black
n -t * -s 38  -x 218 -y 150 -Z 0 -z 20  -v circle -c black
n -t * -s 39  -x 218 -y 200 -Z 0 -z 20  -v circle -c black
V -t * -v 1.0a5 -a 0
W -t * -x 250 -y 250
A -t * -n 1 -p 0 -o 0x7fffffff -c 30 -a 1
A -t * -h 1 -m 1073741823 -s 0
+ -t 1.106011134 -s 37 -d -1 -p tcp -e 40 -c 2 -a 0 -i 0 -k AGT 
- -t 1.106011134 -s 37 -d -1 -p tcp -e 40 -c 2 -a 0 -i 0 -k AGT
h -t 1.106011134 -s 37 -d -1 -p tcp -e 40 -c 2 -a 0 -i 0 -k AGT
+ -t 1.106011134 -s 37 -d -1 -p AODV -e 48 -c 2 -a 0 -i 0 -k RTR 
- -t 1.106011134 -s 37 -d -1 -p AODV -e 48 -c 2 -a 0 -i 0 -k RTR
h -t 1.106011134 -s 37 -d -1 -p AODV -e 48 -c 2 -a 0 -i 0 -k RTR
r -t 1.109933237 -s 32 -d -1 -p AODV -e 48 -c 2 -a 0 -i 0 -k RTR
r -t 1.109933300 -s 36 -d -1 -p AODV -e 48 -c 2 -a 0 -i 0 -k RTR
r -t 1.109933300 -s 38 -d -1 -p AODV -e 48 -c 2 -a 0 -i 0 -k RTR
r -t 1.109933330 -s 33 -d -1 -p AODV -e 48 -c 2 -a 0 -i 0 -k RTR
r -t 1.109933330 -s 31 -d -1 -p AODV -e 48 -c 2 -a 0 -i 0 -k RTR
r -t 1.109933340 -s 27 -d -1 -p AODV -e 48 -c 2 -a 0 -i 0 -k RTR
r -t 1.109933399 -s 28 -d -1 -p AODV -e 48 -c 2 -a 0 -i 0 -k RTR
r -t 1.109933399 -s 26 -d -1 -p AODV -e 48 -c 2 -a 0 -i 0 -k RTR
r -t 1.109933444 -s 22 -d -1 -p AODV -e 48 -c 2 -a 0 -i 0 -k RTR
r -t 1.109933467 -s 35 -d -1 -p AODV -e 48 -c 2 -a 0 -i 0 -k RTR
r -t 1.109933467 -s 39 -d -1 -p AODV -e 48 -c 2 -a 0 -i 0 -k RTR
r -t 1.109933483 -s 34 -d -1 -p AODV -e 48 -c 2 -a 0 -i 0 -k RTR
r -t 1.109933483 -s 30 -d -1 -p AODV -e 48 -c 2 -a 0 -i 0 -k RTR
r -t 1.109933486 -s 23 -d -1 -p AODV -e 48 -c 2 -a 0 -i 0 -k RTR
r -t 1.109933486 -s 21 -d -1 -p AODV -e 48 -c 2 -a 0 -i 0 -k RTR
+ -t 1.109933486 -s 23 -d 37 -p AODV -e 44 -c 2 -a 0 -i 0 -k RTR 
- -t 1.109933486 -s 23 -d 37 -p AODV -e 44 -c 2 -a 0 -i 0 -k RTR
h -t 1.109933486 -s 23 -d 37 -p AODV -e 44 -c 2 -a 0 -i 0 -k RTR
r -t 1.109933526 -s 29 -d -1 -p AODV -e 48 -c 2 -a 0 -i 0 -k RTR
r -t 1.109933526 -s 25 -d -1 -p AODV -e 48 -c 2 -a 0 -i 0 -k RTR
r -t 1.109933550 -s 17 -d -1 -p AODV -e 48 -c 2 -a 0 -i 0 -k RTR
r -t 1.109933582 -s 18 -d -1 -p AODV -e 48 -c 2 -a 0 -i 0 -k RTR
r -t 1.109933582 -s 16 -d -1 -p AODV -e 48 -c 2 -a 0 -i 0 -k RTR
r -t 1.109933589 -s 24 -d -1 -p AODV -e 48 -c 2 -a 0 -i 0 -k RTR
r -t 1.109933589 -s 20 -d -1 -p AODV -e 48 -c 2 -a 0 -i 0 -k RTR
r -t 1.109933654 -s 12 -d -1 -p AODV -e 48 -c 2 -a 0 -i 0 -k RTR
r -t 1.109933667 -s 19 -d -1 -p AODV -e 48 -c 2 -a 0 -i 0 -k RTR
r -t 1.109933667 -s 15 -d -1 -p AODV -e 48 -c 2 -a 0 -i 0 -k RTR
r -t 1.109933680 -s 13 -d -1 -p AODV -e 48 -c 2 -a 0 -i 0 -k RTR
r -t 1.109933680 -s 11 -d -1 -p AODV -e 48 -c 2 -a 0 -i 0 -k RTR
r -t 1.109933751 -s 14 -d -1 -p AODV -e 48 -c 2 -a 0 -i 0 -k RTR
r -t 1.109933751 -s 10 -d -1 -p AODV -e 48 -c 2 -a 0 -i 0 -k RTR
r -t 1.109933757 -s 7 -d -1 -p AODV -e 48 -c 2 -a 0 -i 0 -k RTR
r -t 1.109933779 -s 8 -d -1 -p AODV -e 48 -c 2 -a 0 -i 0 -k RTR
r -t 1.109933779 -s 6 -d -1 -p AODV -e 48 -c 2 -a 0 -i 0 -k RTR
r -t 1.109933840 -s 9 -d -1 -p AODV -e 48 -c 2 -a 0 -i 0 -k RTR
r -t 1.109933840 -s 5 -d -1 -p AODV -e 48 -c 2 -a 0 -i 0 -k RTR
r -t 1.109933860 -s 2 -d -1 -p AODV -e 48 -c 2 -a 0 -i 0 -k RTR
r -t 1.109933879 -s 3 -d -1 -p AODV -e 48 -c 2 -a 0 -i 0 -k RTR
r -t 1.109933879 -s 1 -d -1 -p AODV -e 48 -c 2 -a 0 -i 0 -k RTR
r -t 1.109933933 -s 4 -d -1 -p AODV -e 48 -c 2 -a 0 -i 0 -k RTR
r -t 1.109933933 -s 0 -d -1 -p AODV -e 48 -c 2 -a 0 -i 0 -k RTR
+ -t 1.110328502 -s 35 -d -1 -p AODV -e 48 -c 2 -a 0 -i 0 -k RTR 
- -t 1.110328502 -s 35 -d -1 -p AODV -e 48 -c 2 -a 0 -i 0 -k RTR
h -t 1.110328502 -s 35 -d -1 -p AODV -e 48 -c 2 -a 0 -i 0 -k RTR
+ -t 1.110520505 -s 29 -d -1 -p AODV -e 48 -c 2 -a 0 -i 0 -k RTR 
- -t 1.110520505 -s 29 -d -1 -p AODV -e 48 -c 2 -a 0 -i 0 -k RTR
h -t 1.110520505 -s 29 -d -1 -p AODV -e 48 -c 2 -a 0 -i 0 -k RTR
+ -t 1.110578289 -s 28 -d -1 -p AODV -e 48 -c 2 -a 0 -i 0 -k RTR 
- -t 1.110578289 -s 28 -d -1 -p AODV -e 48 -c 2 -a 0 -i 0 -k RTR
h -t 1.110578289 -s 28 -d -1 -p AODV -e 48 -c 2 -a 0 -i 0 -k RTR
+ -t 1.110598629 -s 6 -d -1 -p AODV -e 48 -c 2 -a 0 -i 0 -k RTR 
- -t 1.110598629 -s 6 -d -1 -p AODV -e 48 -c 2 -a 0 -i 0 -k RTR
h -t 1.110598629 -s 6 -d -1 -p AODV -e 48 -c 2 -a 0 -i 0 -k RTR
+ -t 1.111451690 -s 14 -d -1 -p AODV -e 48 -c 2 -a 0 -i 0 -k RTR 
- -t 1.111451690 -s 14 -d -1 -p AODV -e 48 -c 2 -a 0 -i 0 -k RTR
h -t 1.111451690 -s 14 -d -1 -p AODV -e 48 -c 2 -a 0 -i 0 -k RTR
+ -t 1.111518467 -s 31 -d -1 -p AODV -e 48 -c 2 -a 0 -i 0 -k RTR 
- -t 1.111518467 -s 31 -d -1 -p AODV -e 48 -c 2 -a 0 -i 0 -k RTR
h -t 1.111518467 -s 31 -d -1 -p AODV -e 48 -c 2 -a 0 -i 0 -k RTR
+ -t 1.111700247 -s 26 -d -1 -p AODV -e 48 -c 2 -a 0 -i 0 -k RTR 
- -t 1.111700247 -s 26 -d -1 -p AODV -e 48 -c 2 -a 0 -i 0 -k RTR
h -t 1.111700247 -s 26 -d -1 -p AODV -e 48 -c 2 -a 0 -i 0 -k RTR
+ -t 1.112201789 -s 30 -d -1 -p AODV -e 48 -c 2 -a 0 -i 0 -k RTR 
- -t 1.112201789 -s 30 -d -1 -p AODV -e 48 -c 2 -a 0 -i 0 -k RTR
h -t 1.112201789 -s 30 -d -1 -p AODV -e 48 -c 2 -a 0 -i 0 -k RTR
+ -t 1.112223357 -s 24 -d -1 -p AODV -e 48 -c 2 -a 0 -i 0 -k RTR 
- -t 1.112223357 -s 24 -d -1 -p AODV -e 48 -c 2 -a 0 -i 0 -k RTR
h -t 1.112223357 -s 24 -d -1 -p AODV -e 48 -c 2 -a 0 -i 0 -k RTR
+ -t 1.112288747 -s 27 -d -1 -p AODV -e 48 -c 2 -a 0 -i 0 -k RTR 
- -t 1.112288747 -s 27 -d -1 -p AODV -e 48 -c 2 -a 0 -i 0 -k RTR
h -t 1.112288747 -s 27 -d -1 -p AODV -e 48 -c 2 -a 0 -i 0 -k RTR
+ -t 1.112562488 -s 1 -d -1 -p AODV -e 48 -c 2 -a 0 -i 0 -k RTR 
- -t 1.112562488 -s 1 -d -1 -p AODV -e 48 -c 2 -a 0 -i 0 -k RTR
h -t 1.112562488 -s 1 -d -1 -p AODV -e 48 -c 2 -a 0 -i 0 -k RTR
+ -t 1.113333139 -s 25 -d -1 -p AODV -e 48 -c 2 -a 0 -i 0 -k RTR 
- -t 1.113333139 -s 25 -d -1 -p AODV -e 48 -c 2 -a 0 -i 0 -k RTR
h -t 1.113333139 -s 25 -d -1 -p AODV -e 48 -c 2 -a 0 -i 0 -k RTR
+ -t 1.114267685 -s 16 -d -1 -p AODV -e 48 -c 2 -a 0 -i 0 -k RTR 
- -t 1.114267685 -s 16 -d -1 -p AODV -e 48 -c 2 -a 0 -i 0 -k RTR
h -t 1.114267685 -s 16 -d -1 -p AODV -e 48 -c 2 -a 0 -i 0 -k RTR
+ -t 1.114352020 -s 20 -d -1 -p AODV -e 48 -c 2 -a 0 -i 0 -k RTR 
- -t 1.114352020 -s 20 -d -1 -p AODV -e 48 -c 2 -a 0 -i 0 -k RTR
h -t 1.114352020 -s 20 -d -1 -p AODV -e 48 -c 2 -a 0 -i 0 -k RTR
+ -t 1.114533405 -s 19 -d -1 -p AODV -e 48 -c 2 -a 0 -i 0 -k RTR 
- -t 1.114533405 -s 19 -d -1 -p AODV -e 48 -c 2 -a 0 -i 0 -k RTR
h -t 1.114533405 -s 19 -d -1 -p AODV -e 48 -c 2 -a 0 -i 0 -k RTR
+ -t 1.114729095 -s 4 -d -1 -p AODV -e 48 -c 2 -a 0 -i 0 -k RTR 
- -t 1.114729095 -s 4 -d -1 -p AODV -e 48 -c 2 -a 0 -i 0 -k RTR
h -t 1.114729095 -s 4 -d -1 -p AODV -e 48 -c 2 -a 0 -i 0 -k RTR
+ -t 1.114780978 -s 32 -d -1 -p AODV -e 48 -c 2 -a 0 -i 0 -k RTR 
- -t 1.114780978 -s 32 -d -1 -p AODV -e 48 -c 2 -a 0 -i 0 -k RTR
h -t 1.114780978 -s 32 -d -1 -p AODV -e 48 -c 2 -a 0 -i 0 -k RTR
r -t 1.114800570 -s 36 -d -1 -p AODV -e 48 -c 2 -a 0 -i 0 -k RTR
r -t 1.114800633 -s 30 -d -1 -p AODV -e 48 -c 2 -a 0 -i 0 -k RTR
r -t 1.114800663 -s 35 -d -1 -p AODV -e 48 -c 2 -a 0 -i 0 -k RTR
r -t 1.114820393 -s 23 -d -1 -p AODV -e 48 -c 2 -a 0 -i 0 -k RTR
r -t 1.114820393 -s 33 -d -1 -p AODV -e 48 -c 2 -a 0 -i 0 -k RTR
r -t 1.114820456 -s 29 -d -1 -p AODV -e 48 -c 2 -a 0 -i 0 -k RTR
r -t 1.114820485 -s 24 -d -1 -p AODV -e 48 -c 2 -a 0 -i 0 -k RTR
r -t 1.114820485 -s 34 -d -1 -p AODV -e 48 -c 2 -a 0 -i 0 -k RTR
r -t 1.114820555 -s 39 -d -1 -p AODV -e 48 -c 2 -a 0 -i 0 -k RTR
r -t 1.114840733 -s 1 -d -1 -p AODV -e 48 -c 2 -a 0 -i 0 -k RTR
r -t 1.114840733 -s 11 -d -1 -p AODV -e 48 -c 2 -a 0 -i 0 -k RTR
r -t 1.114840796 -s 5 -d -1 -p AODV -e 48 -c 2 -a 0 -i 0 -k RTR
r -t 1.114840796 -s 7 -d -1 -p AODV -e 48 -c 2 -a 0 -i 0 -k RTR
r -t 1.114840825 -s 2 -d -1 -p AODV -e 48 -c 2 -a 0 -i 0 -k RTR
r -t 1.114840825 -s 0 -d -1 -p AODV -e 48 -c 2 -a 0 -i 0 -k RTR
+ -t 1.115114139 -s 5 -d -1 -p AODV -e 48 -c 2 -a 0 -i 0 -k RTR 
- -t 1.115114139 -s 5 -d -1 -p AODV -e 48 -c 2 -a 0 -i 0 -k RTR
h -t 1.115114139 -s 5 -d -1 -p AODV -e 48 -c 2 -a 0 -i 0 -k RTR
+ -t 1.115287305 -s 8 -d -1 -p AODV -e 48 -c 2 -a 0 -i 0 -k RTR 
- -t 1.115287305 -s 8 -d -1 -p AODV -e 48 -c 2 -a 0 -i 0 -k RTR
h -t 1.115287305 -s 8 -d -1 -p AODV -e 48 -c 2 -a 0 -i 0 -k RTR
+ -t 1.115336074 -s 7 -d -1 -p AODV -e 48 -c 2 -a 0 -i 0 -k RTR 
- -t 1.115336074 -s 7 -d -1 -p AODV -e 48 -c 2 -a 0 -i 0 -k RTR
h -t 1.115336074 -s 7 -d -1 -p AODV -e 48 -c 2 -a 0 -i 0 -k RTR
+ -t 1.115718479 -s 39 -d -1 -p AODV -e 48 -c 2 -a 0 -i 0 -k RTR 
- -t 1.115718479 -s 39 -d -1 -p AODV -e 48 -c 2 -a 0 -i 0 -k RTR
h -t 1.115718479 -s 39 -d -1 -p AODV -e 48 -c 2 -a 0 -i 0 -k RTR
+ -t 1.116162199 -s 38 -d -1 -p AODV -e 48 -c 2 -a 0 -i 0 -k RTR 
- -t 1.116162199 -s 38 -d -1 -p AODV -e 48 -c 2 -a 0 -i 0 -k RTR
h -t 1.116162199 -s 38 -d -1 -p AODV -e 48 -c 2 -a 0 -i 0 -k RTR
+ -t 1.116304377 -s 18 -d -1 -p AODV -e 48 -c 2 -a 0 -i 0 -k RTR 
- -t 1.116304377 -s 18 -d -1 -p AODV -e 48 -c 2 -a 0 -i 0 -k RTR
h -t 1.116304377 -s 18 -d -1 -p AODV -e 48 -c 2 -a 0 -i 0 -k RTR
+ -t 1.116995564 -s 34 -d -1 -p AODV -e 48 -c 2 -a 0 -i 0 -k RTR 
- -t 1.116995564 -s 34 -d -1 -p AODV -e 48 -c 2 -a 0 -i 0 -k RTR
h -t 1.116995564 -s 34 -d -1 -p AODV -e 48 -c 2 -a 0 -i 0 -k RTR
r -t 1.117066606 -s 30 -d -1 -p AODV -e 48 -c 2 -a 0 -i 0 -k RTR
r -t 1.117066669 -s 36 -d -1 -p AODV -e 48 -c 2 -a 0 -i 0 -k RTR
r -t 1.117066698 -s 31 -d -1 -p AODV -e 48 -c 2 -a 0 -i 0 -k RTR
r -t 1.117066709 -s 25 -d -1 -p AODV -e 48 -c 2 -a 0 -i 0 -k RTR
r -t 1.117066768 -s 26 -d -1 -p AODV -e 48 -c 2 -a 0 -i 0 -k RTR
r -t 1.117066812 -s 20 -d -1 -p AODV -e 48 -c 2 -a 0 -i 0 -k RTR
r -t 1.117066836 -s 37 -d -1 -p AODV -e 48 -c 2 -a 0 -i 0 -k RTR
r -t 1.117066851 -s 32 -d -1 -p AODV -e 48 -c 2 -a 0 -i 0 -k RTR
r -t 1.117066854 -s 21 -d -1 -p AODV -e 48 -c 2 -a 0 -i 0 -k RTR
r -t 1.117066894 -s 27 -d -1 -p AODV -e 48 -c 2 -a 0 -i 0 -k RTR
r -t 1.117066919 -s 15 -d -1 -p AODV -e 48 -c 2 -a 0 -i 0 -k RTR
r -t 1.117066951 -s 16 -d -1 -p AODV -e 48 -c 2 -a 0 -i 0 -k RTR
r -t 1.117066957 -s 22 -d -1 -p AODV -e 48 -c 2 -a 0 -i 0 -k RTR
r -t 1.117067002 -s 38 -d -1 -p AODV -e 48 -c 2 -a 0 -i 0 -k RTR
r -t 1.117067013 -s 33 -d -1 -p AODV -e 48 -c 2 -a 0 -i 0 -k RTR
r -t 1.117067022 -s 10 -d -1 -p AODV -e 48 -c 2 -a 0 -i 0 -k RTR
r -t 1.117067036 -s 17 -d -1 -p AODV -e 48 -c 2 -a 0 -i 0 -k RTR
r -t 1.117067043 -s 28 -d -1 -p AODV -e 48 -c 2 -a 0 -i 0 -k RTR
r -t 1.117067048 -s 11 -d -1 -p AODV -e 48 -c 2 -a 0 -i 0 -k RTR
r -t 1.117067091 -s 23 -d -1 -p AODV -e 48 -c 2 -a 0 -i 0 -k RTR
r -t 1.117067120 -s 12 -d -1 -p AODV -e 48 -c 2 -a 0 -i 0 -k RTR
r -t 1.117067126 -s 5 -d -1 -p AODV -e 48 -c 2 -a 0 -i 0 -k RTR
r -t 1.117067148 -s 6 -d -1 -p AODV -e 48 -c 2 -a 0 -i 0 -k RTR
r -t 1.117067153 -s 18 -d -1 -p AODV -e 48 -c 2 -a 0 -i 0 -k RTR
r -t 1.117067169 -s 39 -d -1 -p AODV -e 48 -c 2 -a 0 -i 0 -k RTR
r -t 1.117067177 -s 34 -d -1 -p AODV -e 48 -c 2 -a 0 -i 0 -k RTR
r -t 1.117067200 -s 29 -d -1 -p AODV -e 48 -c 2 -a 0 -i 0 -k RTR
r -t 1.117067209 -s 7 -d -1 -p AODV -e 48 -c 2 -a 0 -i 0 -k RTR
r -t 1.117067224 -s 13 -d -1 -p AODV -e 48 -c 2 -a 0 -i 0 -k RTR
r -t 1.117067229 -s 0 -d -1 -p AODV -e 48 -c 2 -a 0 -i 0 -k RTR
r -t 1.117067237 -s 24 -d -1 -p AODV -e 48 -c 2 -a 0 -i 0 -k RTR
r -t 1.117067248 -s 1 -d -1 -p AODV -e 48 -c 2 -a 0 -i 0 -k RTR
r -t 1.117067288 -s 19 -d -1 -p AODV -e 48 -c 2 -a 0 -i 0 -k RTR
r -t 1.117067301 -s 8 -d -1 -p AODV -e 48 -c 2 -a 0 -i 0 -k RTR
r -t 1.117067302 -s 2 -d -1 -p AODV -e 48 -c 2 -a 0 -i 0 -k RTR
+ -t 1.117231753 -s 3 -d -1 -p AODV -e 48 -c 2 -a 0 -i 0 -k RTR 
- -t 1.117231753 -s 3 -d -1 -p AODV -e 48 -c 2 -a 0 -i 0 -k RTR
h -t 1.117231753 -s 3 -d -1 -p AODV -e 48 -c 2 -a 0 -i 0 -k RTR
+ -t 1.117430865 -s 0 -d -1 -p AODV -e 48 -c 2 -a 0 -i 0 -k RTR 
- -t 1.117430865 -s 0 -d -1 -p AODV -e 48 -c 2 -a 0 -i 0 -k RTR
h -t 1.117430865 -s 0 -d -1 -p AODV -e 48 -c 2 -a 0 -i 0 -k RTR
+ -t 1.117873930 -s 17 -d -1 -p AODV -e 48 -c 2 -a 0 -i 0 -k RTR 
- -t 1.117873930 -s 17 -d -1 -p AODV -e 48 -c 2 -a 0 -i 0 -k RTR
h -t 1.117873930 -s 17 -d -1 -p AODV -e 48 -c 2 -a 0 -i 0 -k RTR
+ -t 1.118235899 -s 21 -d -1 -p AODV -e 48 -c 2 -a 0 -i 0 -k RTR 
- -t 1.118235899 -s 21 -d -1 -p AODV -e 48 -c 2 -a 0 -i 0 -k RTR
h -t 1.118235899 -s 21 -d -1 -p AODV -e 48 -c 2 -a 0 -i 0 -k RTR
+ -t 1.118441158 -s 33 -d -1 -p AODV -e 48 -c 2 -a 0 -i 0 -k RTR 
- -t 1.118441158 -s 33 -d -1 -p AODV -e 48 -c 2 -a 0 -i 0 -k RTR
h -t 1.118441158 -s 33 -d -1 -p AODV -e 48 -c 2 -a 0 -i 0 -k RTR
+ -t 1.118646892 -s 22 -d -1 -p AODV -e 48 -c 2 -a 0 -i 0 -k RTR 
- -t 1.118646892 -s 22 -d -1 -p AODV -e 48 -c 2 -a 0 -i 0 -k RTR
h -t 1.118646892 -s 22 -d -1 -p AODV -e 48 -c 2 -a 0 -i 0 -k RTR
+ -t 1.118743656 -s 2 -d -1 -p AODV -e 48 -c 2 -a 0 -i 0 -k RTR 
- -t 1.118743656 -s 2 -d -1 -p AODV -e 48 -c 2 -a 0 -i 0 -k RTR
h -t 1.118743656 -s 2 -d -1 -p AODV -e 48 -c 2 -a 0 -i 0 -k RTR
+ -t 1.118901309 -s 36 -d -1 -p AODV -e 48 -c 2 -a 0 -i 0 -k RTR 
- -t 1.118901309 -s 36 -d -1 -p AODV -e 48 -c 2 -a 0 -i 0 -k RTR
h -t 1.118901309 -s 36 -d -1 -p AODV -e 48 -c 2 -a 0 -i 0 -k RTR
+ -t 1.118948049 -s 15 -d -1 -p AODV -e 48 -c 2 -a 0 -i 0 -k RTR 
- -t 1.118948049 -s 15 -d -1 -p AODV -e 48 -c 2 -a 0 -i 0 -k RTR
h -t 1.118948049 -s 15 -d -1 -p AODV -e 48 -c 2 -a 0 -i 0 -k RTR
+ -t 1.118990751 -s 11 -d -1 -p AODV -e 48 -c 2 -a 0 -i 0 -k RTR 
- -t 1.118990751 -s 11 -d -1 -p AODV -e 48 -c 2 -a 0 -i 0 -k RTR
h -t 1.118990751 -s 11 -d -1 -p AODV -e 48 -c 2 -a 0 -i 0 -k RTR
r -t 1.119300591 -s 6 -d -1 -p AODV -e 48 -c 2 -a 0 -i 0 -k RTR
r -t 1.119300655 -s 0 -d -1 -p AODV -e 48 -c 2 -a 0 -i 0 -k RTR
r -t 1.119300655 -s 2 -d -1 -p AODV -e 48 -c 2 -a 0 -i 0 -k RTR
r -t 1.119300684 -s 5 -d -1 -p AODV -e 48 -c 2 -a 0 -i 0 -k RTR
r -t 1.119300684 -s 7 -d -1 -p AODV -e 48 -c 2 -a 0 -i 0 -k RTR
r -t 1.119300695 -s 11 -d -1 -p AODV -e 48 -c 2 -a 0 -i 0 -k RTR
r -t 1.119300753 -s 10 -d -1 -p AODV -e 48 -c 2 -a 0 -i 0 -k RTR
r -t 1.119300840 -s 15 -d -1 -p AODV -e 48 -c 2 -a 0 -i 0 -k RTR
+ -t 1.119332842 -s 12 -d -1 -p AODV -e 48 -c 2 -a 0 -i 0 -k RTR 
- -t 1.119332842 -s 12 -d -1 -p AODV -e 48 -c 2 -a 0 -i 0 -k RTR
h -t 1.119332842 -s 12 -d -1 -p AODV -e 48 -c 2 -a 0 -i 0 -k RTR
r -t 1.119370608 -s 24 -d -1 -p AODV -e 48 -c 2 -a 0 -i 0 -k RTR
r -t 1.119370608 -s 34 -d -1 -p AODV -e 48 -c 2 -a 0 -i 0 -k RTR
r -t 1.119370672 -s 28 -d -1 -p AODV -e 48 -c 2 -a 0 -i 0 -k RTR
r -t 1.119370701 -s 23 -d -1 -p AODV -e 48 -c 2 -a 0 -i 0 -k RTR
r -t 1.119370701 -s 33 -d -1 -p AODV -e 48 -c 2 -a 0 -i 0 -k RTR
r -t 1.119370712 -s 39 -d -1 -p AODV -e 48 -c 2 -a 0 -i 0 -k RTR
r -t 1.119370715 -s 19 -d -1 -p AODV -e 48 -c 2 -a 0 -i 0 -k RTR
r -t 1.119370770 -s 38 -d -1 -p AODV -e 48 -c 2 -a 0 -i 0 -k RTR
r -t 1.119370854 -s 32 -d -1 -p AODV -e 48 -c 2 -a 0 -i 0 -k RTR
r -t 1.119370897 -s 37 -d -1 -p AODV -e 48 -c 2 -a 0 -i 0 -k RTR
+ -t 1.119383992 -s 10 -d -1 -p AODV -e 48 -c 2 -a 0 -i 0 -k RTR 
- -t 1.119383992 -s 10 -d -1 -p AODV -e 48 -c 2 -a 0 -i 0 -k RTR
h -t 1.119383992 -s 10 -d -1 -p AODV -e 48 -c 2 -a 0 -i 0 -k RTR
+ -t 1.119510875 -s 13 -d -1 -p AODV -e 48 -c 2 -a 0 -i 0 -k RTR 
- -t 1.119510875 -s 13 -d -1 -p AODV -e 48 -c 2 -a 0 -i 0 -k RTR
h -t 1.119510875 -s 13 -d -1 -p AODV -e 48 -c 2 -a 0 -i 0 -k RTR
+ -t 1.119652147 -s 9 -d -1 -p AODV -e 48 -c 2 -a 0 -i 0 -k RTR 
- -t 1.119652147 -s 9 -d -1 -p AODV -e 48 -c 2 -a 0 -i 0 -k RTR
h -t 1.119652147 -s 9 -d -1 -p AODV -e 48 -c 2 -a 0 -i 0 -k RTR
r -t 1.121634480 -s 13 -d -1 -p AODV -e 48 -c 2 -a 0 -i 0 -k RTR
r -t 1.121634483 -s 23 -d -1 -p AODV -e 48 -c 2 -a 0 -i 0 -k RTR
r -t 1.121634543 -s 17 -d -1 -p AODV -e 48 -c 2 -a 0 -i 0 -k RTR
r -t 1.121634543 -s 19 -d -1 -p AODV -e 48 -c 2 -a 0 -i 0 -k RTR
r -t 1.121634573 -s 14 -d -1 -p AODV -e 48 -c 2 -a 0 -i 0 -k RTR
r -t 1.121634573 -s 12 -d -1 -p AODV -e 48 -c 2 -a 0 -i 0 -k RTR
r -t 1.121634575 -s 22 -d -1 -p AODV -e 48 -c 2 -a 0 -i 0 -k RTR
r -t 1.121634575 -s 24 -d -1 -p AODV -e 48 -c 2 -a 0 -i 0 -k RTR
r -t 1.121634583 -s 8 -d -1 -p AODV -e 48 -c 2 -a 0 -i 0 -k RTR
r -t 1.121634587 -s 28 -d -1 -p AODV -e 48 -c 2 -a 0 -i 0 -k RTR
r -t 1.121634642 -s 9 -d -1 -p AODV -e 48 -c 2 -a 0 -i 0 -k RTR
r -t 1.121634642 -s 7 -d -1 -p AODV -e 48 -c 2 -a 0 -i 0 -k RTR
r -t 1.121634645 -s 27 -d -1 -p AODV -e 48 -c 2 -a 0 -i 0 -k RTR
r -t 1.121634645 -s 29 -d -1 -p AODV -e 48 -c 2 -a 0 -i 0 -k RTR
r -t 1.121634687 -s 3 -d -1 -p AODV -e 48 -c 2 -a 0 -i 0 -k RTR
r -t 1.121634690 -s 33 -d -1 -p AODV -e 48 -c 2 -a 0 -i 0 -k RTR
r -t 1.121634710 -s 16 -d -1 -p AODV -e 48 -c 2 -a 0 -i 0 -k RTR
r -t 1.121634726 -s 11 -d -1 -p AODV -e 48 -c 2 -a 0 -i 0 -k RTR
r -t 1.121634727 -s 21 -d -1 -p AODV -e 48 -c 2 -a 0 -i 0 -k RTR
r -t 1.121634729 -s 4 -d -1 -p AODV -e 48 -c 2 -a 0 -i 0 -k RTR
r -t 1.121634729 -s 2 -d -1 -p AODV -e 48 -c 2 -a 0 -i 0 -k RTR
r -t 1.121634732 -s 32 -d -1 -p AODV -e 48 -c 2 -a 0 -i 0 -k RTR
r -t 1.121634732 -s 34 -d -1 -p AODV -e 48 -c 2 -a 0 -i 0 -k RTR
r -t 1.121634769 -s 6 -d -1 -p AODV -e 48 -c 2 -a 0 -i 0 -k RTR
r -t 1.121634771 -s 26 -d -1 -p AODV -e 48 -c 2 -a 0 -i 0 -k RTR
r -t 1.121634793 -s 38 -d -1 -p AODV -e 48 -c 2 -a 0 -i 0 -k RTR
r -t 1.121634825 -s 37 -d -1 -p AODV -e 48 -c 2 -a 0 -i 0 -k RTR
r -t 1.121634825 -s 39 -d -1 -p AODV -e 48 -c 2 -a 0 -i 0 -k RTR
r -t 1.121634832 -s 1 -d -1 -p AODV -e 48 -c 2 -a 0 -i 0 -k RTR
r -t 1.121634834 -s 31 -d -1 -p AODV -e 48 -c 2 -a 0 -i 0 -k RTR
r -t 1.121634877 -s 15 -d -1 -p AODV -e 48 -c 2 -a 0 -i 0 -k RTR
r -t 1.121634887 -s 10 -d -1 -p AODV -e 48 -c 2 -a 0 -i 0 -k RTR
r -t 1.121634888 -s 20 -d -1 -p AODV -e 48 -c 2 -a 0 -i 0 -k RTR
r -t 1.121634910 -s 36 -d -1 -p AODV -e 48 -c 2 -a 0 -i 0 -k RTR
r -t 1.121634918 -s 5 -d -1 -p AODV -e 48 -c 2 -a 0 -i 0 -k RTR
r -t 1.121634919 -s 25 -d -1 -p AODV -e 48 -c 2 -a 0 -i 0 -k RTR
r -t 1.121634965 -s 0 -d -1 -p AODV -e 48 -c 2 -a 0 -i 0 -k RTR
r -t 1.121634967 -s 30 -d -1 -p AODV -e 48 -c 2 -a 0 -i 0 -k RTR
r -t 1.121635027 -s 35 -d -1 -p AODV -e 48 -c 2 -a 0 -i 0 -k RTR
r -t 1.123945759 -s 7 -d -1 -p AODV -e 48 -c 2 -a 0 -i 0 -k RTR
r -t 1.123945823 -s 3 -d -1 -p AODV -e 48 -c 2 -a 0 -i 0 -k RTR
r -t 1.123945852 -s 8 -d -1 -p AODV -e 48 -c 2 -a 0 -i 0 -k RTR
r -t 1.123945922 -s 13 -d -1 -p AODV -e 48 -c 2 -a 0 -i 0 -k RTR
r -t 1.123945989 -s 4 -d -1 -p AODV -e 48 -c 2 -a 0 -i 0 -k RTR
r -t 1.123946005 -s 9 -d -1 -p AODV -e 48 -c 2 -a 0 -i 0 -k RTR
r -t 1.123964242 -s 0 -d -1 -p AODV -e 48 -c 2 -a 0 -i 0 -k RTR
r -t 1.123964242 -s 10 -d -1 -p AODV -e 48 -c 2 -a 0 -i 0 -k RTR
r -t 1.123964346 -s 15 -d -1 -p AODV -e 48 -c 2 -a 0 -i 0 -k RTR
r -t 1.126210123 -s 25 -d -1 -p AODV -e 48 -c 2 -a 0 -i 0 -k RTR
r -t 1.126210126 -s 15 -d -1 -p AODV -e 48 -c 2 -a 0 -i 0 -k RTR
r -t 1.126210218 -s 16 -d -1 -p AODV -e 48 -c 2 -a 0 -i 0 -k RTR
r -t 1.126210230 -s 10 -d -1 -p AODV -e 48 -c 2 -a 0 -i 0 -k RTR
r -t 1.126210288 -s 11 -d -1 -p AODV -e 48 -c 2 -a 0 -i 0 -k RTR
r -t 1.126210333 -s 5 -d -1 -p AODV -e 48 -c 2 -a 0 -i 0 -k RTR
r -t 1.126210375 -s 6 -d -1 -p AODV -e 48 -c 2 -a 0 -i 0 -k RTR
r -t 1.126210436 -s 0 -d -1 -p AODV -e 48 -c 2 -a 0 -i 0 -k RTR
+ -t 1.126405439 -s 15 -d -1 -p tcp -e 40 -c 2 -a 0 -i 1 -k AGT 
- -t 1.126405439 -s 15 -d -1 -p tcp -e 40 -c 2 -a 0 -i 1 -k AGT
h -t 1.126405439 -s 15 -d -1 -p tcp -e 40 -c 2 -a 0 -i 1 -k AGT
+ -t 1.126405439 -s 15 -d -1 -p AODV -e 48 -c 2 -a 0 -i 0 -k RTR 
- -t 1.126405439 -s 15 -d -1 -p AODV -e 48 -c 2 -a 0 -i 0 -k RTR
h -t 1.126405439 -s 15 -d -1 -p AODV -e 48 -c 2 -a 0 -i 0 -k RTR
+ -t 1.127838335 -s 18 -d -1 -p tcp -e 40 -c 2 -a 0 -i 2 -k AGT 
- -t 1.127838335 -s 18 -d -1 -p tcp -e 40 -c 2 -a 0 -i 2 -k AGT
h -t 1.127838335 -s 18 -d -1 -p tcp -e 40 -c 2 -a 0 -i 2 -k AGT
+ -t 1.127838335 -s 18 -d -1 -p AODV -e 48 -c 2 -a 0 -i 0 -k RTR 
- -t 1.127838335 -s 18 -d -1 -p AODV -e 48 -c 2 -a 0 -i 0 -k RTR
h -t 1.127838335 -s 18 -d -1 -p AODV -e 48 -c 2 -a 0 -i 0 -k RTR
r -t 1.128815081 -s 27 -d -1 -p AODV -e 48 -c 2 -a 0 -i 0 -k RTR
r -t 1.128815081 -s 37 -d -1 -p AODV -e 48 -c 2 -a 0 -i 0 -k RTR
r -t 1.128815144 -s 31 -d -1 -p AODV -e 48 -c 2 -a 0 -i 0 -k RTR
r -t 1.128815174 -s 26 -d -1 -p AODV -e 48 -c 2 -a 0 -i 0 -k RTR
r -t 1.128815174 -s 36 -d -1 -p AODV -e 48 -c 2 -a 0 -i 0 -k RTR
r -t 1.128815243 -s 21 -d -1 -p AODV -e 48 -c 2 -a 0 -i 0 -k RTR
r -t 1.128815311 -s 30 -d -1 -p AODV -e 48 -c 2 -a 0 -i 0 -k RTR
r -t 1.128815327 -s 25 -d -1 -p AODV -e 48 -c 2 -a 0 -i 0 -k RTR
r -t 1.128815327 -s 35 -d -1 -p AODV -e 48 -c 2 -a 0 -i 0 -k RTR
r -t 1.128815370 -s 20 -d -1 -p AODV -e 48 -c 2 -a 0 -i 0 -k RTR
r -t 1.128981668 -s 29 -d -1 -p AODV -e 48 -c 2 -a 0 -i 0 -k RTR
r -t 1.128981668 -s 39 -d -1 -p AODV -e 48 -c 2 -a 0 -i 0 -k RTR
r -t 1.131195198 -s 9 -d -1 -p AODV -e 48 -c 2 -a 0 -i 0 -k RTR
r -t 1.131195261 -s 3 -d -1 -p AODV -e 48 -c 2 -a 0 -i 0 -k RTR
r -t 1.131195291 -s 8 -d -1 -p AODV -e 48 -c 2 -a 0 -i 0 -k RTR
r -t 1.131195301 -s 14 -d -1 -p AODV -e 48 -c 2 -a 0 -i 0 -k RTR
r -t 1.131195360 -s 13 -d -1 -p AODV -e 48 -c 2 -a 0 -i 0 -k RTR
r -t 1.131195405 -s 19 -d -1 -p AODV -e 48 -c 2 -a 0 -i 0 -k RTR
r -t 1.131195511 -s 24 -d -1 -p AODV -e 48 -c 2 -a 0 -i 0 -k RTR
r -t 1.131208968 -s 5 -d -1 -p AODV -e 48 -c 2 -a 0 -i 0 -k RTR
r -t 1.131209032 -s 1 -d -1 -p AODV -e 48 -c 2 -a 0 -i 0 -k RTR
r -t 1.131209061 -s 6 -d -1 -p AODV -e 48 -c 2 -a 0 -i 0 -k RTR
r -t 1.131209072 -s 10 -d -1 -p AODV -e 48 -c 2 -a 0 -i 0 -k RTR
r -t 1.131209131 -s 11 -d -1 -p AODV -e 48 -c 2 -a 0 -i 0 -k RTR
r -t 1.131209175 -s 15 -d -1 -p AODV -e 48 -c 2 -a 0 -i 0 -k RTR
r -t 1.131209282 -s 20 -d -1 -p AODV -e 48 -c 2 -a 0 -i 0 -k RTR
r -t 1.133447243 -s 20 -d -1 -p AODV -e 48 -c 2 -a 0 -i 0 -k RTR
r -t 1.133447243 -s 30 -d -1 -p AODV -e 48 -c 2 -a 0 -i 0 -k RTR
r -t 1.133447306 -s 26 -d -1 -p AODV -e 48 -c 2 -a 0 -i 0 -k RTR
r -t 1.133447335 -s 21 -d -1 -p AODV -e 48 -c 2 -a 0 -i 0 -k RTR
r -t 1.133447335 -s 31 -d -1 -p AODV -e 48 -c 2 -a 0 -i 0 -k RTR
r -t 1.133447346 -s 35 -d -1 -p AODV -e 48 -c 2 -a 0 -i 0 -k RTR
r -t 1.133447349 -s 15 -d -1 -p AODV -e 48 -c 2 -a 0 -i 0 -k RTR
r -t 1.133447405 -s 36 -d -1 -p AODV -e 48 -c 2 -a 0 -i 0 -k RTR
r -t 1.133447407 -s 16 -d -1 -p AODV -e 48 -c 2 -a 0 -i 0 -k RTR
r -t 1.133447453 -s 10 -d -1 -p AODV -e 48 -c 2 -a 0 -i 0 -k RTR
r -t 1.133447473 -s 27 -d -1 -p AODV -e 48 -c 2 -a 0 -i 0 -k RTR
r -t 1.133447488 -s 22 -d -1 -p AODV -e 48 -c 2 -a 0 -i 0 -k RTR
r -t 1.133447488 -s 32 -d -1 -p AODV -e 48 -c 2 -a 0 -i 0 -k RTR
r -t 1.133447494 -s 11 -d -1 -p AODV -e 48 -c 2 -a 0 -i 0 -k RTR
r -t 1.133447531 -s 37 -d -1 -p AODV -e 48 -c 2 -a 0 -i 0 -k RTR
r -t 1.133447533 -s 17 -d -1 -p AODV -e 48 -c 2 -a 0 -i 0 -k RTR
r -t 1.133447556 -s 5 -d -1 -p AODV -e 48 -c 2 -a 0 -i 0 -k RTR
r -t 1.133447588 -s 6 -d -1 -p AODV -e 48 -c 2 -a 0 -i 0 -k RTR
r -t 1.133447597 -s 12 -d -1 -p AODV -e 48 -c 2 -a 0 -i 0 -k RTR
r -t 1.133447639 -s 28 -d -1 -p AODV -e 48 -c 2 -a 0 -i 0 -k RTR
r -t 1.133447650 -s 23 -d -1 -p AODV -e 48 -c 2 -a 0 -i 0 -k RTR
r -t 1.133447650 -s 33 -d -1 -p AODV -e 48 -c 2 -a 0 -i 0 -k RTR
r -t 1.133447659 -s 0 -d -1 -p AODV -e 48 -c 2 -a 0 -i 0 -k RTR
r -t 1.133447673 -s 7 -d -1 -p AODV -e 48 -c 2 -a 0 -i 0 -k RTR
r -t 1.133447680 -s 38 -d -1 -p AODV -e 48 -c 2 -a 0 -i 0 -k RTR
r -t 1.133447682 -s 18 -d -1 -p AODV -e 48 -c 2 -a 0 -i 0 -k RTR
r -t 1.133447685 -s 1 -d -1 -p AODV -e 48 -c 2 -a 0 -i 0 -k RTR
r -t 1.133447729 -s 13 -d -1 -p AODV -e 48 -c 2 -a 0 -i 0 -k RTR
r -t 1.133447757 -s 2 -d -1 -p AODV -e 48 -c 2 -a 0 -i 0 -k RTR
r -t 1.133447790 -s 8 -d -1 -p AODV -e 48 -c 2 -a 0 -i 0 -k RTR
r -t 1.133447806 -s 29 -d -1 -p AODV -e 48 -c 2 -a 0 -i 0 -k RTR
r -t 1.133447814 -s 24 -d -1 -p AODV -e 48 -c 2 -a 0 -i 0 -k RTR
r -t 1.133447814 -s 34 -d -1 -p AODV -e 48 -c 2 -a 0 -i 0 -k RTR
r -t 1.133447837 -s 39 -d -1 -p AODV -e 48 -c 2 -a 0 -i 0 -k RTR
r -t 1.133447838 -s 19 -d -1 -p AODV -e 48 -c 2 -a 0 -i 0 -k RTR
r -t 1.133447861 -s 3 -d -1 -p AODV -e 48 -c 2 -a 0 -i 0 -k RTR
r -t 1.133447876 -s 14 -d -1 -p AODV -e 48 -c 2 -a 0 -i 0 -k RTR
r -t 1.133447925 -s 9 -d -1 -p AODV -e 48 -c 2 -a 0 -i 0 -k RTR
r -t 1.135670945 -s 7 -d -1 -p AODV -e 48 -c 2 -a 0 -i 0 -k RTR
r -t 1.135670945 -s 17 -d -1 -p AODV -e 48 -c 2 -a 0 -i 0 -k RTR
r -t 1.135671009 -s 11 -d -1 -p AODV -e 48 -c 2 -a 0 -i 0 -k RTR
r -t 1.135671009 -s 13 -d -1 -p AODV -e 48 -c 2 -a 0 -i 0 -k RTR
r -t 1.135671038 -s 8 -d -1 -p AODV -e 48 -c 2 -a 0 -i 0 -k RTR
r -t 1.135671038 -s 6 -d -1 -p AODV -e 48 -c 2 -a 0 -i 0 -k RTR
r -t 1.135671038 -s 16 -d -1 -p AODV -e 48 -c 2 -a 0 -i 0 -k RTR
r -t 1.135671049 -s 2 -d -1 -p AODV -e 48 -c 2 -a 0 -i 0 -k RTR
r -t 1.135671108 -s 3 -d -1 -p AODV -e 48 -c 2 -a 0 -i 0 -k RTR
r -t 1.135671108 -s 1 -d -1 -p AODV -e 48 -c 2 -a 0 -i 0 -k RTR
r -t 1.135671175 -s 10 -d -1 -p AODV -e 48 -c 2 -a 0 -i 0 -k RTR
r -t 1.135671191 -s 5 -d -1 -p AODV -e 48 -c 2 -a 0 -i 0 -k RTR
r -t 1.135671234 -s 0 -d -1 -p AODV -e 48 -c 2 -a 0 -i 0 -k RTR
r -t 1.135675261 -s 28 -d -1 -p AODV -e 48 -c 2 -a 0 -i 0 -k RTR
r -t 1.135675261 -s 38 -d -1 -p AODV -e 48 -c 2 -a 0 -i 0 -k RTR
r -t 1.135675324 -s 32 -d -1 -p AODV -e 48 -c 2 -a 0 -i 0 -k RTR
r -t 1.135675324 -s 34 -d -1 -p AODV -e 48 -c 2 -a 0 -i 0 -k RTR
r -t 1.135675354 -s 29 -d -1 -p AODV -e 48 -c 2 -a 0 -i 0 -k RTR
r -t 1.135675354 -s 37 -d -1 -p AODV -e 48 -c 2 -a 0 -i 0 -k RTR
r -t 1.135675354 -s 39 -d -1 -p AODV -e 48 -c 2 -a 0 -i 0 -k RTR
r -t 1.138016854 -s 6 -d -1 -p AODV -e 48 -c 2 -a 0 -i 0 -k RTR
r -t 1.138016854 -s 16 -d -1 -p AODV -e 48 -c 2 -a 0 -i 0 -k RTR
r -t 1.138016917 -s 10 -d -1 -p AODV -e 48 -c 2 -a 0 -i 0 -k RTR
r -t 1.138016917 -s 12 -d -1 -p AODV -e 48 -c 2 -a 0 -i 0 -k RTR
r -t 1.138016947 -s 7 -d -1 -p AODV -e 48 -c 2 -a 0 -i 0 -k RTR
r -t 1.138016947 -s 5 -d -1 -p AODV -e 48 -c 2 -a 0 -i 0 -k RTR
r -t 1.138016947 -s 15 -d -1 -p AODV -e 48 -c 2 -a 0 -i 0 -k RTR
r -t 1.138016947 -s 17 -d -1 -p AODV -e 48 -c 2 -a 0 -i 0 -k RTR
r -t 1.138016957 -s 1 -d -1 -p AODV -e 48 -c 2 -a 0 -i 0 -k RTR
r -t 1.138016961 -s 21 -d -1 -p AODV -e 48 -c 2 -a 0 -i 0 -k RTR
r -t 1.138017016 -s 2 -d -1 -p AODV -e 48 -c 2 -a 0 -i 0 -k RTR
r -t 1.138017016 -s 0 -d -1 -p AODV -e 48 -c 2 -a 0 -i 0 -k RTR
r -t 1.138017019 -s 20 -d -1 -p AODV -e 48 -c 2 -a 0 -i 0 -k RTR
r -t 1.138017019 -s 22 -d -1 -p AODV -e 48 -c 2 -a 0 -i 0 -k RTR
r -t 1.138017064 -s 26 -d -1 -p AODV -e 48 -c 2 -a 0 -i 0 -k RTR
r -t 1.138017084 -s 13 -d -1 -p AODV -e 48 -c 2 -a 0 -i 0 -k RTR
r -t 1.138017100 -s 8 -d -1 -p AODV -e 48 -c 2 -a 0 -i 0 -k RTR
r -t 1.138017100 -s 18 -d -1 -p AODV -e 48 -c 2 -a 0 -i 0 -k RTR
r -t 1.138017106 -s 25 -d -1 -p AODV -e 48 -c 2 -a 0 -i 0 -k RTR
r -t 1.138017106 -s 27 -d -1 -p AODV -e 48 -c 2 -a 0 -i 0 -k RTR
r -t 1.138017143 -s 3 -d -1 -p AODV -e 48 -c 2 -a 0 -i 0 -k RTR
r -t 1.138017145 -s 23 -d -1 -p AODV -e 48 -c 2 -a 0 -i 0 -k RTR
r -t 1.138017167 -s 31 -d -1 -p AODV -e 48 -c 2 -a 0 -i 0 -k RTR
r -t 1.138017200 -s 30 -d -1 -p AODV -e 48 -c 2 -a 0 -i 0 -k RTR
r -t 1.138017200 -s 32 -d -1 -p AODV -e 48 -c 2 -a 0 -i 0 -k RTR
r -t 1.138017208 -s 28 -d -1 -p AODV -e 48 -c 2 -a 0 -i 0 -k RTR
r -t 1.138017251 -s 14 -d -1 -p AODV -e 48 -c 2 -a 0 -i 0 -k RTR
r -t 1.138017261 -s 9 -d -1 -p AODV -e 48 -c 2 -a 0 -i 0 -k RTR
r -t 1.138017261 -s 19 -d -1 -p AODV -e 48 -c 2 -a 0 -i 0 -k RTR
r -t 1.138017271 -s 36 -d -1 -p AODV -e 48 -c 2 -a 0 -i 0 -k RTR
r -t 1.138017284 -s 33 -d -1 -p AODV -e 48 -c 2 -a 0 -i 0 -k RTR
r -t 1.138017292 -s 4 -d -1 -p AODV -e 48 -c 2 -a 0 -i 0 -k RTR
r -t 1.138017293 -s 24 -d -1 -p AODV -e 48 -c 2 -a 0 -i 0 -k RTR
r -t 1.138017297 -s 35 -d -1 -p AODV -e 48 -c 2 -a 0 -i 0 -k RTR
r -t 1.138017297 -s 37 -d -1 -p AODV -e 48 -c 2 -a 0 -i 0 -k RTR
r -t 1.138017341 -s 29 -d -1 -p AODV -e 48 -c 2 -a 0 -i 0 -k RTR
r -t 1.138017368 -s 38 -d -1 -p AODV -e 48 -c 2 -a 0 -i 0 -k RTR
r -t 1.138017402 -s 34 -d -1 -p AODV -e 48 -c 2 -a 0 -i 0 -k RTR
r -t 1.138017472 -s 39 -d -1 -p AODV -e 48 -c 2 -a 0 -i 0 -k RTR
r -t 1.140650095 -s 5 -d -1 -p AODV -e 48 -c 2 -a 0 -i 0 -k RTR
r -t 1.140650095 -s 15 -d -1 -p AODV -e 48 -c 2 -a 0 -i 0 -k RTR
r -t 1.140650199 -s 0 -d -1 -p AODV -e 48 -c 2 -a 0 -i 0 -k RTR
r -t 1.140650202 -s 20 -d -1 -p AODV -e 48 -c 2 -a 0 -i 0 -k RTR