s 1.028573734 _7_ AGT  --- 0 tcp 40 [0 0 0 0] ------- [7:1 1:2 32 0] [0 0] 0 0
r 1.028573734 _7_ RTR  --- 0 tcp 40 [0 0 0 0] ------- [7:1 1:2 32 0] [0 0] 0 0
s 1.028573734 _7_ RTR  --- 0 AODV 48 [0 0 0 0] ------- [7:255 -1:255 30 0] [0x2 1 1 [1 0] [7 4]] (REQUEST)
r 1.033775941 _6_ RTR  --- 0 AODV 48 [0 ffffffff 7 800] ------- [7:255 -1:255 30 0] [0x2 1 1 [1 0] [7 4]] (REQUEST)
r 1.033776068 _15_ RTR  --- 0 AODV 48 [0 ffffffff 7 800] ------- [7:255 -1:255 30 0] [0x2 1 1 [1 0] [7 4]] (REQUEST)
r 1.033776127 _14_ RTR  --- 0 AODV 48 [0 ffffffff 7 800] ------- [7:255 -1:255 30 0] [0x2 1 1 [1 0] [7 4]] (REQUEST)
r 1.033776151 _5_ RTR  --- 0 AODV 48 [0 ffffffff 7 800] ------- [7:255 -1:255 30 0] [0x2 1 1 [1 0] [7 4]] (REQUEST)
r 1.033776268 _13_ RTR  --- 0 AODV 48 [0 ffffffff 7 800] ------- [7:255 -1:255 30 0] [0x2 1 1 [1 0] [7 4]] (REQUEST)
r 1.033776358 _4_ RTR  --- 0 AODV 48 [0 ffffffff 7 800] ------- [7:255 -1:255 30 0] [0x2 1 1 [1 0] [7 4]] (REQUEST)
r 1.033776401 _23_ RTR  --- 0 AODV 48 [0 ffffffff 7 800] ------- [7:255 -1:255 30 0] [0x2 1 1 [1 0] [7 4]] (REQUEST)
r 1.033776432 _22_ RTR  --- 0 AODV 48 [0 ffffffff 7 800] ------- [7:255 -1:255 30 0] [0x2 1 1 [1 0] [7 4]] (REQUEST)
r 1.033776441 _12_ RTR  --- 0 AODV 48 [0 ffffffff 7 800] ------- [7:255 -1:255 30 0] [0x2 1 1 [1 0] [7 4]] (REQUEST)
r 1.033776521 _21_ RTR  --- 0 AODV 48 [0 ffffffff 7 800] ------- [7:255 -1:255 30 0] [0x2 1 1 [1 0] [7 4]] (REQUEST)
r 1.033776568 _3_ RTR  --- 0 AODV 48 [0 ffffffff 7 800] ------- [7:255 -1:255 30 0] [0x2 1 1 [1 0] [7 4]] (REQUEST)
s 1.033811849 _3_ RTR  --- 0 AODV 48 [0 ffffffff 7 800] ------- [3:255 -1:255 29 0] [0x2 2 1 [1 0] [7 4]] (REQUEST)
s 1.035074683 _13_ RTR  --- 0 AODV 48 [0 ffffffff 7 800] ------- [13:255 -1:255 29 0] [0x2 2 1 [1 0] [7 4]] (REQUEST)
s 1.037704333 _14_ RTR  --- 0 AODV 48 [0 ffffffff 7 800] ------- [14:255 -1:255 29 0] [0x2 2 1 [1 0] [7 4]] (REQUEST)
r 1.037734056 _2_ RTR  --- 0 AODV 48 [0 ffffffff 3 800] ------- [3:255 -1:255 29 0] [0x2 2 1 [1 0] [7 4]] (REQUEST)
r 1.037734059 _4_ RTR  --- 0 AODV 48 [0 ffffffff 3 800] ------- [3:255 -1:255 29 0] [0x2 2 1 [1 0] [7 4]] (REQUEST)
r 1.037734183 _11_ RTR  --- 0 AODV 48 [0 ffffffff 3 800] ------- [3:255 -1:255 29 0] [0x2 2 1 [1 0] [7 4]] (REQUEST)
r 1.037734242 _10_ RTR  --- 0 AODV 48 [0 ffffffff 3 800] ------- [3:255 -1:255 29 0] [0x2 2 1 [1 0] [7 4]] (REQUEST)
r 1.037734243 _12_ RTR  --- 0 AODV 48 [0 ffffffff 3 800] ------- [3:255 -1:255 29 0] [0x2 2 1 [1 0] [7 4]] (REQUEST)
r 1.037734266 _1_ RTR  --- 0 AODV 48 [0 ffffffff 3 800] ------- [3:255 -1:255 29 0] [0x2 2 1 [1 0] [7 4]] (REQUEST)
r 1.037734266 _5_ RTR  --- 0 AODV 48 [0 ffffffff 3 800] ------- [3:255 -1:255 29 0] [0x2 2 1 [1 0] [7 4]] (REQUEST)
s 1.037734266 _1_ RTR  --- 0 AODV 44 [0 0 0 0] ------- [1:255 7:255 30 3] [0x4 1 [1 4] 10.000000] (REPLY)
r 1.037734383 _9_ RTR  --- 0 AODV 48 [0 ffffffff 3 800] ------- [3:255 -1:255 29 0] [0x2 2 1 [1 0] [7 4]] (REQUEST)
r 1.037734383 _13_ RTR  --- 0 AODV 48 [0 ffffffff 3 800] ------- [3:255 -1:255 29 0] [0x2 2 1 [1 0] [7 4]] (REQUEST)
r 1.037734473 _0_ RTR  --- 0 AODV 48 [0 ffffffff 3 800] ------- [3:255 -1:255 29 0] [0x2 2 1 [1 0] [7 4]] (REQUEST)
r 1.037734476 _6_ RTR  --- 0 AODV 48 [0 ffffffff 3 800] ------- [3:255 -1:255 29 0] [0x2 2 1 [1 0] [7 4]] (REQUEST)
r 1.037734516 _19_ RTR  --- 0 AODV 48 [0 ffffffff 3 800] ------- [3:255 -1:255 29 0] [0x2 2 1 [1 0] [7 4]] (REQUEST)
r 1.037734547 _18_ RTR  --- 0 AODV 48 [0 ffffffff 3 800] ------- [3:255 -1:255 29 0] [0x2 2 1 [1 0] [7 4]] (REQUEST)
r 1.037734548 _20_ RTR  --- 0 AODV 48 [0 ffffffff 3 800] ------- [3:255 -1:255 29 0] [0x2 2 1 [1 0] [7 4]] (REQUEST)
r 1.037734556 _8_ RTR  --- 0 AODV 48 [0 ffffffff 3 800] ------- [3:255 -1:255 29 0] [0x2 2 1 [1 0] [7 4]] (REQUEST)
r 1.037734559 _14_ RTR  --- 0 AODV 48 [0 ffffffff 3 800] ------- [3:255 -1:255 29 0] [0x2 2 1 [1 0] [7 4]] (REQUEST)
r 1.037734636 _17_ RTR  --- 0 AODV 48 [0 ffffffff 3 800] ------- [3:255 -1:255 29 0] [0x2 2 1 [1 0] [7 4]] (REQUEST)
r 1.037734636 _21_ RTR  --- 0 AODV 48 [0 ffffffff 3 800] ------- [3:255 -1:255 29 0] [0x2 2 1 [1 0] [7 4]] (REQUEST)
r 1.037734683 _7_ RTR  --- 0 AODV 48 [0 ffffffff 3 800] ------- [3:255 -1:255 29 0] [0x2 2 1 [1 0] [7 4]] (REQUEST)
s 1.037813983 _17_ RTR  --- 0 AODV 48 [0 ffffffff 3 800] ------- [17:255 -1:255 28 0] [0x2 3 1 [1 0] [7 4]] (REQUEST)
s 1.037933816 _0_ RTR  --- 0 AODV 48 [0 ffffffff 3 800] ------- [0:255 -1:255 28 0] [0x2 3 1 [1 0] [7 4]] (REQUEST)
s 1.037946695 _23_ RTR  --- 0 AODV 48 [0 ffffffff 7 800] ------- [23:255 -1:255 29 0] [0x2 2 1 [1 0] [7 4]] (REQUEST)
s 1.038079554 _6_ RTR  --- 0 AODV 48 [0 ffffffff 7 800] ------- [6:255 -1:255 29 0] [0x2 2 1 [1 0] [7 4]] (REQUEST)
s 1.039210874 _5_ RTR  --- 0 AODV 48 [0 ffffffff 7 800] ------- [5:255 -1:255 29 0] [0x2 2 1 [1 0] [7 4]] (REQUEST)
s 1.039325634 _10_ RTR  --- 0 AODV 48 [0 ffffffff 3 800] ------- [10:255 -1:255 28 0] [0x2 3 1 [1 0] [7 4]] (REQUEST)
s 1.039578680 _4_ RTR  --- 0 AODV 48 [0 ffffffff 7 800] ------- [4:255 -1:255 29 0] [0x2 2 1 [1 0] [7 4]] (REQUEST)
r 1.040276890 _12_ RTR  --- 0 AODV 48 [0 ffffffff d 800] ------- [13:255 -1:255 29 0] [0x2 2 1 [1 0] [7 4]] (REQUEST)
r 1.040276893 _14_ RTR  --- 0 AODV 48 [0 ffffffff d 800] ------- [13:255 -1:255 29 0] [0x2 2 1 [1 0] [7 4]] (REQUEST)
r 1.040277017 _5_ RTR  --- 0 AODV 48 [0 ffffffff d 800] ------- [13:255 -1:255 29 0] [0x2 2 1 [1 0] [7 4]] (REQUEST)
r 1.040277017 _21_ RTR  --- 0 AODV 48 [0 ffffffff d 800] ------- [13:255 -1:255 29 0] [0x2 2 1 [1 0] [7 4]] (REQUEST)
r 1.040277075 _4_ RTR  --- 0 AODV 48 [0 ffffffff d 800] ------- [13:255 -1:255 29 0] [0x2 2 1 [1 0] [7 4]] (REQUEST)
r 1.040277075 _20_ RTR  --- 0 AODV 48 [0 ffffffff d 800] ------- [13:255 -1:255 29 0] [0x2 2 1 [1 0] [7 4]] (REQUEST)
r 1.040277077 _6_ RTR  --- 0 AODV 48 [0 ffffffff d 800] ------- [13:255 -1:255 29 0] [0x2 2 1 [1 0] [7 4]] (REQUEST)
r 1.040277077 _22_ RTR  --- 0 AODV 48 [0 ffffffff d 800] ------- [13:255 -1:255 29 0] [0x2 2 1 [1 0] [7 4]] (REQUEST)
r 1.040277100 _11_ RTR  --- 0 AODV 48 [0 ffffffff d 800] ------- [13:255 -1:255 29 0] [0x2 2 1 [1 0] [7 4]] (REQUEST)
r 1.040277100 _15_ RTR  --- 0 AODV 48 [0 ffffffff d 800] ------- [13:255 -1:255 29 0] [0x2 2 1 [1 0] [7 4]] (REQUEST)
r 1.040277217 _7_ RTR  --- 0 AODV 48 [0 ffffffff d 800] ------- [13:255 -1:255 29 0] [0x2 2 1 [1 0] [7 4]] (REQUEST)
r 1.040277217 _3_ RTR  --- 0 AODV 48 [0 ffffffff d 800] ------- [13:255 -1:255 29 0] [0x2 2 1 [1 0] [7 4]] (REQUEST)
r 1.040277217 _19_ RTR  --- 0 AODV 48 [0 ffffffff d 800] ------- [13:255 -1:255 29 0] [0x2 2 1 [1 0] [7 4]] (REQUEST)
r 1.040277217 _23_ RTR  --- 0 AODV 48 [0 ffffffff d 800] ------- [13:255 -1:255 29 0] [0x2 2 1 [1 0] [7 4]] (REQUEST)
r 1.040277307 _10_ RTR  --- 0 AODV 48 [0 ffffffff d 800] ------- [13:255 -1:255 29 0] [0x2 2 1 [1 0] [7 4]] (REQUEST)
r 1.040277350 _29_ RTR  --- 0 AODV 48 [0 ffffffff d 800] ------- [13:255 -1:255 29 0] [0x2 2 1 [1 0] [7 4]] (REQUEST)
r 1.040277381 _28_ RTR  --- 0 AODV 48 [0 ffffffff d 800] ------- [13:255 -1:255 29 0] [0x2 2 1 [1 0] [7 4]] (REQUEST)
r 1.040277382 _30_ RTR  --- 0 AODV 48 [0 ffffffff d 800] ------- [13:255 -1:255 29 0] [0x2 2 1 [1 0] [7 4]] (REQUEST)
r 1.040277390 _2_ RTR  --- 0 AODV 48 [0 ffffffff d 800] ------- [13:255 -1:255 29 0] [0x2 2 1 [1 0] [7 4]] (REQUEST)
r 1.040277390 _18_ RTR  --- 0 AODV 48 [0 ffffffff d 800] ------- [13:255 -1:255 29 0] [0x2 2 1 [1 0] [7 4]] (REQUEST)
r 1.040277469 _27_ RTR  --- 0 AODV 48 [0 ffffffff d 800] ------- [13:255 -1:255 29 0] [0x2 2 1 [1 0] [7 4]] (REQUEST)
r 1.040277469 _31_ RTR  --- 0 AODV 48 [0 ffffffff d 800] ------- [13:255 -1:255 29 0] [0x2 2 1 [1 0] [7 4]] (REQUEST)
r 1.040277517 _9_ RTR  --- 0 AODV 48 [0 ffffffff d 800] ------- [13:255 -1:255 29 0] [0x2 2 1 [1 0] [7 4]] (REQUEST)
s 1.040431938 _9_ RTR  --- 0 AODV 48 [0 ffffffff 3 800] ------- [9:255 -1:255 28 0] [0x2 3 1 [1 0] [7 4]] (REQUEST)
s 1.040632720 _28_ RTR  --- 0 AODV 48 [0 ffffffff d 800] ------- [28:255 -1:255 28 0] [0x2 3 1 [1 0] [7 4]] (REQUEST)
s 1.040814042 _8_ RTR  --- 0 AODV 48 [0 ffffffff 3 800] ------- [8:255 -1:255 28 0] [0x2 3 1 [1 0] [7 4]] (REQUEST)
s 1.041774463 _27_ RTR  --- 0 AODV 48 [0 ffffffff d 800] ------- [27:255 -1:255 28 0] [0x2 3 1 [1 0] [7 4]] (REQUEST)
s 1.041835374 _12_ RTR  --- 0 AODV 48 [0 ffffffff 7 800] ------- [12:255 -1:255 29 0] [0x2 2 1 [1 0] [7 4]] (REQUEST)
s 1.042045213 _22_ RTR  --- 0 AODV 48 [0 ffffffff 7 800] ------- [22:255 -1:255 29 0] [0x2 2 1 [1 0] [7 4]] (REQUEST)
s 1.042053358 _18_ RTR  --- 0 AODV 48 [0 ffffffff 3 800] ------- [18:255 -1:255 28 0] [0x2 3 1 [1 0] [7 4]] (REQUEST)
s 1.042076522 _15_ RTR  --- 0 AODV 48 [0 ffffffff 7 800] ------- [15:255 -1:255 29 0] [0x2 2 1 [1 0] [7 4]] (REQUEST)
s 1.042350248 _21_ RTR  --- 0 AODV 48 [0 ffffffff 7 800] ------- [21:255 -1:255 29 0] [0x2 2 1 [1 0] [7 4]] (REQUEST)
s 1.042506650 _11_ RTR  --- 0 AODV 48 [0 ffffffff 3 800] ------- [11:255 -1:255 28 0] [0x2 3 1 [1 0] [7 4]] (REQUEST)
r 1.042586666 _22_ RTR  --- 0 AODV 48 [0 ffffffff e 800] ------- [14:255 -1:255 29 0] [0x2 2 1 [1 0] [7 4]] (REQUEST)
s 1.042608978 _20_ RTR  --- 0 AODV 48 [0 ffffffff 3 800] ------- [20:255 -1:255 28 0] [0x2 3 1 [1 0] [7 4]] (REQUEST)
r 1.042816023 _1_ RTR  --- 0 AODV 48 [0 ffffffff 0 800] ------- [0:255 -1:255 28 0] [0x2 3 1 [1 0] [7 4]] (REQUEST)
r 1.042816149 _8_ RTR  --- 0 AODV 48 [0 ffffffff 0 800] ------- [0:255 -1:255 28 0] [0x2 3 1 [1 0] [7 4]] (REQUEST)
r 1.042816208 _9_ RTR  --- 0 AODV 48 [0 ffffffff 0 800] ------- [0:255 -1:255 28 0] [0x2 3 1 [1 0] [7 4]] (REQUEST)
s 1.043200314 _28_ AGT  --- 1 tcp 40 [0 0 0 0] ------- [28:1 35:0 32 0] [0 0] 0 0
r 1.043200314 _28_ RTR  --- 1 tcp 40 [0 0 0 0] ------- [28:1 35:0 32 0] [0 0] 0 0
s 1.043200314 _28_ RTR  --- 0 AODV 48 [0 0 0 0] ------- [28:255 -1:255 30 0] [0x2 1 1 [35 0] [28 4]] (REQUEST)
s 1.044724884 _31_ RTR  --- 0 AODV 48 [0 ffffffff d 800] ------- [31:255 -1:255 28 0] [0x2 3 1 [1 0] [7 4]] (REQUEST)
s 1.044776158 _19_ RTR  --- 0 AODV 48 [0 ffffffff 3 800] ------- [19:255 -1:255 28 0] [0x2 3 1 [1 0] [7 4]] (REQUEST)
r 1.045228887 _5_ RTR  --- 0 AODV 48 [0 ffffffff 4 800] ------- [4:255 -1:255 29 0] [0x2 2 1 [1 0] [7 4]] (REQUEST)
r 1.045228890 _3_ RTR  --- 0 AODV 48 [0 ffffffff 4 800] ------- [4:255 -1:255 29 0] [0x2 2 1 [1 0] [7 4]] (REQUEST)
r 1.045229013 _12_ RTR  --- 0 AODV 48 [0 ffffffff 4 800] ------- [4:255 -1:255 29 0] [0x2 2 1 [1 0] [7 4]] (REQUEST)
r 1.045229072 _13_ RTR  --- 0 AODV 48 [0 ffffffff 4 800] ------- [4:255 -1:255 29 0] [0x2 2 1 [1 0] [7 4]] (REQUEST)
r 1.045229074 _11_ RTR  --- 0 AODV 48 [0 ffffffff 4 800] ------- [4:255 -1:255 29 0] [0x2 2 1 [1 0] [7 4]] (REQUEST)
r 1.045229097 _2_ RTR  --- 0 AODV 48 [0 ffffffff 4 800] ------- [4:255 -1:255 29 0] [0x2 2 1 [1 0] [7 4]] (REQUEST)
r 1.045229097 _6_ RTR  --- 0 AODV 48 [0 ffffffff 4 800] ------- [4:255 -1:255 29 0] [0x2 2 1 [1 0] [7 4]] (REQUEST)
r 1.045229214 _10_ RTR  --- 0 AODV 48 [0 ffffffff 4 800] ------- [4:255 -1:255 29 0] [0x2 2 1 [1 0] [7 4]] (REQUEST)
r 1.045229214 _14_ RTR  --- 0 AODV 48 [0 ffffffff 4 800] ------- [4:255 -1:255 29 0] [0x2 2 1 [1 0] [7 4]] (REQUEST)
r 1.045229303 _7_ RTR  --- 0 AODV 48 [0 ffffffff 4 800] ------- [4:255 -1:255 29 0] [0x2 2 1 [1 0] [7 4]] (REQUEST)
r 1.045229307 _1_ RTR  --- 0 AODV 48 [0 ffffffff 4 800] ------- [4:255 -1:255 29 0] [0x2 2 1 [1 0] [7 4]] (REQUEST)
r 1.045229347 _20_ RTR  --- 0 AODV 48 [0 ffffffff 4 800] ------- [4:255 -1:255 29 0] [0x2 2 1 [1 0] [7 4]] (REQUEST)
r 1.045229378 _21_ RTR  --- 0 AODV 48 [0 ffffffff 4 800] ------- [4:255 -1:255 29 0] [0x2 2 1 [1 0] [7 4]] (REQUEST)
r 1.045229379 _19_ RTR  --- 0 AODV 48 [0 ffffffff 4 800] ------- [4:255 -1:255 29 0] [0x2 2 1 [1 0] [7 4]] (REQUEST)
r 1.045229387 _15_ RTR  --- 0 AODV 48 [0 ffffffff 4 800] ------- [4:255 -1:255 29 0] [0x2 2 1 [1 0] [7 4]] (REQUEST)
r 1.045229390 _9_ RTR  --- 0 AODV 48 [0 ffffffff 4 800] ------- [4:255 -1:255 29 0] [0x2 2 1 [1 0] [7 4]] (REQUEST)
r 1.045229466 _18_ RTR  --- 0 AODV 48 [0 ffffffff 4 800] ------- [4:255 -1:255 29 0] [0x2 2 1 [1 0] [7 4]] (REQUEST)
r 1.045229466 _22_ RTR  --- 0 AODV 48 [0 ffffffff 4 800] ------- [4:255 -1:255 29 0] [0x2 2 1 [1 0] [7 4]] (REQUEST)
r 1.045229513 _0_ RTR  --- 0 AODV 48 [0 ffffffff 4 800] ------- [4:255 -1:255 29 0] [0x2 2 1 [1 0] [7 4]] (REQUEST)
s 1.046117013 _2_ RTR  --- 0 AODV 48 [0 ffffffff 3 800] ------- [2:255 -1:255 28 0] [0x2 3 1 [1 0] [7 4]] (REQUEST)
s 1.046752550 _30_ RTR  --- 0 AODV 48 [0 ffffffff d 800] ------- [30:255 -1:255 28 0] [0x2 3 1 [1 0] [7 4]] (REQUEST)
s 1.047250528 _26_ AGT  --- 2 tcp 40 [0 0 0 0] ------- [26:3 8:2 32 0] [0 0] 0 0
r 1.047250528 _26_ RTR  --- 2 tcp 40 [0 0 0 0] ------- [26:3 8:2 32 0] [0 0] 0 0
s 1.047250528 _26_ RTR  --- 0 AODV 48 [0 0 0 0] ------- [26:255 -1:255 30 0] [0x2 1 1 [8 0] [26 4]] (REQUEST)
r 1.048046855 _7_ RTR  --- 0 AODV 48 [0 ffffffff f 800] ------- [15:255 -1:255 29 0] [0x2 2 1 [1 0] [7 4]] (REQUEST)
r 1.048064673 _28_ RTR  --- 0 AODV 48 [0 ffffffff 1b 800] ------- [27:255 -1:255 28 0] [0x2 3 1 [1 0] [7 4]] (REQUEST)
r 1.048064797 _35_ RTR  --- 0 AODV 48 [0 ffffffff 1b 800] ------- [27:255 -1:255 28 0] [0x2 3 1 [1 0] [7 4]] (REQUEST)
r 1.048064857 _36_ RTR  --- 0 AODV 48 [0 ffffffff 1b 800] ------- [27:255 -1:255 28 0] [0x2 3 1 [1 0] [7 4]] (REQUEST)
r 1.048141028 _31_ RTR  --- 0 AODV 48 [0 ffffffff 17 800] ------- [23:255 -1:255 29 0] [0x2 2 1 [1 0] [7 4]] (REQUEST)
r 1.048200189 _16_ RTR  --- 0 AODV 48 [0 ffffffff 11 800] ------- [17:255 -1:255 28 0] [0x2 3 1 [1 0] [7 4]] (REQUEST)
r 1.048200316 _9_ RTR  --- 0 AODV 48 [0 ffffffff 11 800] ------- [17:255 -1:255 28 0] [0x2 3 1 [1 0] [7 4]] (REQUEST)
r 1.048200375 _8_ RTR  --- 0 AODV 48 [0 ffffffff 11 800] ------- [17:255 -1:255 28 0] [0x2 3 1 [1 0] [7 4]] (REQUEST)
s 1.049760358 _29_ RTR  --- 0 AODV 48 [0 ffffffff d 800] ------- [29:255 -1:255 28 0] [0x2 3 1 [1 0] [7 4]] (REQUEST)
r 1.050570926 _29_ RTR  --- 0 AODV 48 [0 ffffffff 1c 800] ------- [28:255 -1:255 28 0] [0x2 3 1 [1 0] [7 4]] (REQUEST)
r 1.050571053 _36_ RTR  --- 0 AODV 48 [0 ffffffff 1c 800] ------- [28:255 -1:255 28 0] [0x2 3 1 [1 0] [7 4]] (REQUEST)
r 1.050571112 _37_ RTR  --- 0 AODV 48 [0 ffffffff 1c 800] ------- [28:255 -1:255 28 0] [0x2 3 1 [1 0] [7 4]] (REQUEST)
r 1.050746364 _18_ RTR  --- 0 AODV 48 [0 ffffffff 13 800] ------- [19:255 -1:255 28 0] [0x2 3 1 [1 0] [7 4]] (REQUEST)
r 1.050749081 _4_ RTR  --- 0 AODV 48 [0 ffffffff 5 800] ------- [5:255 -1:255 29 0] [0x2 2 1 [1 0] [7 4]] (REQUEST)
r 1.050749084 _6_ RTR  --- 0 AODV 48 [0 ffffffff 5 800] ------- [5:255 -1:255 29 0] [0x2 2 1 [1 0] [7 4]] (REQUEST)
r 1.050749291 _7_ RTR  --- 0 AODV 48 [0 ffffffff 5 800] ------- [5:255 -1:255 29 0] [0x2 2 1 [1 0] [7 4]] (REQUEST)
s 1.051234910 _16_ RTR  --- 0 AODV 48 [0 ffffffff 11 800] ------- [16:255 -1:255 27 0] [0x2 4 1 [1 0] [7 4]] (REQUEST)
s 1.051336094 _37_ RTR  --- 0 AODV 48 [0 ffffffff 1c 800] ------- [37:255 -1:255 27 0] [0x2 4 1 [1 0] [7 4]] (REQUEST)
r 1.053482926 _29_ RTR  --- 0 AODV 48 [0 ffffffff 1c 800] ------- [28:255 -1:255 30 0] [0x2 1 1 [35 0] [28 4]] (REQUEST)
r 1.053482930 _27_ RTR  --- 0 AODV 48 [0 ffffffff 1c 800] ------- [28:255 -1:255 30 0] [0x2 1 1 [35 0] [28 4]] (REQUEST)
r 1.053483053 _20_ RTR  --- 0 AODV 48 [0 ffffffff 1c 800] ------- [28:255 -1:255 30 0] [0x2 1 1 [35 0] [28 4]] (REQUEST)
r 1.053483053 _36_ RTR  --- 0 AODV 48 [0 ffffffff 1c 800] ------- [28:255 -1:255 30 0] [0x2 1 1 [35 0] [28 4]] (REQUEST)
r 1.053483112 _21_ RTR  --- 0 AODV 48 [0 ffffffff 1c 800] ------- [28:255 -1:255 30 0] [0x2 1 1 [35 0] [28 4]] (REQUEST)
r 1.053483112 _37_ RTR  --- 0 AODV 48 [0 ffffffff 1c 800] ------- [28:255 -1:255 30 0] [0x2 1 1 [35 0] [28 4]] (REQUEST)
r 1.053483113 _19_ RTR  --- 0 AODV 48 [0 ffffffff 1c 800] ------- [28:255 -1:255 30 0] [0x2 1 1 [35 0] [28 4]] (REQUEST)
r 1.053483113 _35_ RTR  --- 0 AODV 48 [0 ffffffff 1c 800] ------- [28:255 -1:255 30 0] [0x2 1 1 [35 0] [28 4]] (REQUEST)
s 1.053483113 _35_ RTR  --- 0 AODV 44 [0 0 0 0] ------- [35:255 28:255 30 28] [0x4 1 [35 4] 10.000000] (REPLY)
r 1.053483136 _26_ RTR  --- 0 AODV 48 [0 ffffffff 1c 800] ------- [28:255 -1:255 30 0] [0x2 1 1 [35 0] [28 4]] (REQUEST)
r 1.053483136 _30_ RTR  --- 0 AODV 48 [0 ffffffff 1c 800] ------- [28:255 -1:255 30 0] [0x2 1 1 [35 0] [28 4]] (REQUEST)
r 1.053483253 _22_ RTR  --- 0 AODV 48 [0 ffffffff 1c 800] ------- [28:255 -1:255 30 0] [0x2 1 1 [35 0] [28 4]] (REQUEST)
r 1.053483253 _18_ RTR  --- 0 AODV 48 [0 ffffffff 1c 800] ------- [28:255 -1:255 30 0] [0x2 1 1 [35 0] [28 4]] (REQUEST)
r 1.053483253 _34_ RTR  --- 0 AODV 48 [0 ffffffff 1c 800] ------- [28:255 -1:255 30 0] [0x2 1 1 [35 0] [28 4]] (REQUEST)
r 1.053483253 _38_ RTR  --- 0 AODV 48 [0 ffffffff 1c 800] ------- [28:255 -1:255 30 0] [0x2 1 1 [35 0] [28 4]] (REQUEST)
r 1.053483343 _31_ RTR  --- 0 AODV 48 [0 ffffffff 1c 800] ------- [28:255 -1:255 30 0] [0x2 1 1 [35 0] [28 4]] (REQUEST)
r 1.053483346 _25_ RTR  --- 0 AODV 48 [0 ffffffff 1c 800] ------- [28:255 -1:255 30 0] [0x2 1 1 [35 0] [28 4]] (REQUEST)
r 1.053483386 _12_ RTR  --- 0 AODV 48 [0 ffffffff 1c 800] ------- [28:255 -1:255 30 0] [0x2 1 1 [35 0] [28 4]] (REQUEST)
r 1.053483417 _13_ RTR  --- 0 AODV 48 [0 ffffffff 1c 800] ------- [28:255 -1:255 30 0] [0x2 1 1 [35 0] [28 4]] (REQUEST)
r 1.053483418 _11_ RTR  --- 0 AODV 48 [0 ffffffff 1c 800] ------- [28:255 -1:255 30 0] [0x2 1 1 [35 0] [28 4]] (REQUEST)
r 1.053483426 _23_ RTR  --- 0 AODV 48 [0 ffffffff 1c 800] ------- [28:255 -1:255 30 0] [0x2 1 1 [35 0] [28 4]] (REQUEST)
r 1.053483426 _39_ RTR  --- 0 AODV 48 [0 ffffffff 1c 800] ------- [28:255 -1:255 30 0] [0x2 1 1 [35 0] [28 4]] (REQUEST)
r 1.053483429 _17_ RTR  --- 0 AODV 48 [0 ffffffff 1c 800] ------- [28:255 -1:255 30 0] [0x2 1 1 [35 0] [28 4]] (REQUEST)
r 1.053483429 _33_ RTR  --- 0 AODV 48 [0 ffffffff 1c 800] ------- [28:255 -1:255 30 0] [0x2 1 1 [35 0] [28 4]] (REQUEST)
r 1.053483506 _14_ RTR  --- 0 AODV 48 [0 ffffffff 1c 800] ------- [28:255 -1:255 30 0] [0x2 1 1 [35 0] [28 4]] (REQUEST)
r 1.053483506 _10_ RTR  --- 0 AODV 48 [0 ffffffff 1c 800] ------- [28:255 -1:255 30 0] [0x2 1 1 [35 0] [28 4]] (REQUEST)
r 1.053483553 _24_ RTR  --- 0 AODV 48 [0 ffffffff 1c 800] ------- [28:255 -1:255 30 0] [0x2 1 1 [35 0] [28 4]] (REQUEST)
s 1.054117346 _18_ RTR  --- 0 AODV 48 [0 ffffffff 1c 800] ------- [18:255 -1:255 29 0] [0x2 2 1 [35 0] [28 4]] (REQUEST)
s 1.054337610 _22_ RTR  --- 0 AODV 48 [0 ffffffff 1c 800] ------- [22:255 -1:255 29 0] [0x2 2 1 [35 0] [28 4]] (REQUEST)
s 1.054804241 _21_ RTR  --- 0 AODV 48 [0 ffffffff 1c 800] ------- [21:255 -1:255 29 0] [0x2 2 1 [35 0] [28 4]] (REQUEST)
s 1.054902673 _35_ RTR  --- 0 AODV 48 [0 ffffffff 1b 800] ------- [35:255 -1:255 27 0] [0x2 4 1 [1 0] [7 4]] (REQUEST)
s 1.055005680 _24_ RTR  --- 0 AODV 48 [0 ffffffff 1c 800] ------- [24:255 -1:255 29 0] [0x2 2 1 [35 0] [28 4]] (REQUEST)
s 1.055030674 _14_ RTR  --- 0 AODV 48 [0 ffffffff 1c 800] ------- [14:255 -1:255 29 0] [0x2 2 1 [35 0] [28 4]] (REQUEST)
r 1.055780738 _25_ RTR  --- 0 AODV 48 [0 ffffffff 1a 800] ------- [26:255 -1:255 30 0] [0x2 1 1 [8 0] [26 4]] (REQUEST)
r 1.055780861 _34_ RTR  --- 0 AODV 48 [0 ffffffff 1a 800] ------- [26:255 -1:255 30 0] [0x2 1 1 [8 0] [26 4]] (REQUEST)
r 1.055780922 _33_ RTR  --- 0 AODV 48 [0 ffffffff 1a 800] ------- [26:255 -1:255 30 0] [0x2 1 1 [8 0] [26 4]] (REQUEST)
r 1.055780945 _24_ RTR  --- 0 AODV 48 [0 ffffffff 1a 800] ------- [26:255 -1:255 30 0] [0x2 1 1 [8 0] [26 4]] (REQUEST)
r 1.055781062 _32_ RTR  --- 0 AODV 48 [0 ffffffff 1a 800] ------- [26:255 -1:255 30 0] [0x2 1 1 [8 0] [26 4]] (REQUEST)
r 1.055933707 _4_ RTR  --- 0 AODV 48 [0 ffffffff c 800] ------- [12:255 -1:255 29 0] [0x2 2 1 [1 0] [7 4]] (REQUEST)
s 1.056255328 _10_ RTR  --- 0 AODV 48 [0 ffffffff 1c 800] ------- [10:255 -1:255 29 0] [0x2 2 1 [35 0] [28 4]] (REQUEST)
s 1.056294013 _31_ RTR  --- 0 AODV 48 [0 ffffffff 1c 800] ------- [31:255 -1:255 29 0] [0x2 2 1 [35 0] [28 4]] (REQUEST)
s 1.056544878 _13_ AGT  --- 3 tcp 40 [0 0 0 0] ------- [13:2 31:0 32 0] [0 0] 0 0
r 1.056544878 _13_ RTR  --- 3 tcp 40 [0 0 0 0] ------- [13:2 31:0 32 0] [0 0] 0 0
s 1.056544878 _13_ RTR  --- 0 AODV 48 [0 0 0 0] ------- [13:255 -1:255 30 0] [0x2 1 1 [31 0] [13 4]] (REQUEST)
s 1.056583305 _36_ RTR  --- 0 AODV 48 [0 ffffffff 1b 800] ------- [36:255 -1:255 27 0] [0x2 4 1 [1 0] [7 4]] (REQUEST)
s 1.057026188 _34_ RTR  --- 0 AODV 48 [0 ffffffff 1a 800] ------- [34:255 -1:255 29 0] [0x2 2 1 [8 0] [26 4]] (REQUEST)
s 1.057104703 _29_ RTR  --- 0 AODV 48 [0 ffffffff 1c 800] ------- [29:255 -1:255 29 0] [0x2 2 1 [35 0] [28 4]] (REQUEST)
s 1.058088256 _30_ RTR  --- 0 AODV 48 [0 ffffffff 1c 800] ------- [30:255 -1:255 29 0] [0x2 2 1 [35 0] [28 4]] (REQUEST)
s 1.058337657 _24_ RTR  --- 0 AODV 48 [0 ffffffff 1a 800] ------- [24:255 -1:255 29 0] [0x2 2 1 [8 0] [26 4]] (REQUEST)
s 1.058467265 _36_ RTR  --- 0 AODV 48 [0 ffffffff 1c 800] ------- [36:255 -1:255 29 0] [0x2 2 1 [35 0] [28 4]] (REQUEST)
s 1.058515384 _39_ RTR  --- 0 AODV 48 [0 ffffffff 1c 800] ------- [39:255 -1:255 29 0] [0x2 2 1 [35 0] [28 4]] (REQUEST)
s 1.058860448 _33_ RTR  --- 0 AODV 48 [0 ffffffff 1c 800] ------- [33:255 -1:255 29 0] [0x2 2 1 [35 0] [28 4]] (REQUEST)
s 1.058917371 _13_ RTR  --- 0 AODV 48 [0 ffffffff 1c 800] ------- [13:255 -1:255 29 0] [0x2 2 1 [35 0] [28 4]] (REQUEST)
s 1.059193264 _34_ RTR  --- 0 AODV 48 [0 ffffffff 1c 800] ------- [34:255 -1:255 29 0] [0x2 2 1 [35 0] [28 4]] (REQUEST)
s 1.059434007 _25_ RTR  --- 0 AODV 48 [0 ffffffff 1c 800] ------- [25:255 -1:255 29 0] [0x2 2 1 [35 0] [28 4]] (REQUEST)
s 1.059578912 _20_ RTR  --- 0 AODV 48 [0 ffffffff 1c 800] ------- [20:255 -1:255 29 0] [0x2 2 1 [35 0] [28 4]] (REQUEST)
r 1.059955085 _12_ RTR  --- 0 AODV 48 [0 ffffffff d 800] ------- [13:255 -1:255 30 0] [0x2 1 1 [31 0] [13 4]] (REQUEST)
r 1.059955088 _14_ RTR  --- 0 AODV 48 [0 ffffffff d 800] ------- [13:255 -1:255 30 0] [0x2 1 1 [31 0] [13 4]] (REQUEST)
r 1.059955212 _5_ RTR  --- 0 AODV 48 [0 ffffffff d 800] ------- [13:255 -1:255 30 0] [0x2 1 1 [31 0] [13 4]] (REQUEST)
r 1.059955212 _21_ RTR  --- 0 AODV 48 [0 ffffffff d 800] ------- [13:255 -1:255 30 0] [0x2 1 1 [31 0] [13 4]] (REQUEST)
r 1.059955270 _4_ RTR  --- 0 AODV 48 [0 ffffffff d 800] ------- [13:255 -1:255 30 0] [0x2 1 1 [31 0] [13 4]] (REQUEST)
r 1.059955272 _6_ RTR  --- 0 AODV 48 [0 ffffffff d 800] ------- [13:255 -1:255 30 0] [0x2 1 1 [31 0] [13 4]] (REQUEST)
r 1.059955272 _22_ RTR  --- 0 AODV 48 [0 ffffffff d 800] ------- [13:255 -1:255 30 0] [0x2 1 1 [31 0] [13 4]] (REQUEST)
r 1.059955295 _11_ RTR  --- 0 AODV 48 [0 ffffffff d 800] ------- [13:255 -1:255 30 0] [0x2 1 1 [31 0] [13 4]] (REQUEST)
r 1.059955295 _15_ RTR  --- 0 AODV 48 [0 ffffffff d 800] ------- [13:255 -1:255 30 0] [0x2 1 1 [31 0] [13 4]] (REQUEST)
r 1.059955412 _7_ RTR  --- 0 AODV 48 [0 ffffffff d 800] ------- [13:255 -1:255 30 0] [0x2 1 1 [31 0] [13 4]] (REQUEST)
r 1.059955412 _3_ RTR  --- 0 AODV 48 [0 ffffffff d 800] ------- [13:255 -1:255 30 0] [0x2 1 1 [31 0] [13 4]] (REQUEST)
r 1.059955585 _2_ RTR  --- 0 AODV 48 [0 ffffffff d 800] ------- [13:255 -1:255 30 0] [0x2 1 1 [31 0] [13 4]] (REQUEST)
s 1.060000421 _32_ RTR  --- 0 AODV 48 [0 ffffffff 1a 800] ------- [32:255 -1:255 29 0] [0x2 2 1 [8 0] [26 4]] (REQUEST)
s 1.060064978 _5_ RTR  --- 0 AODV 48 [0 ffffffff d 800] ------- [5:255 -1:255 29 0] [0x2 2 1 [31 0] [13 4]] (REQUEST)
s 1.060075731 _17_ RTR  --- 0 AODV 48 [0 ffffffff 1c 800] ------- [17:255 -1:255 29 0] [0x2 2 1 [35 0] [28 4]] (REQUEST)
r 1.060185512 _37_ RTR  --- 0 AODV 48 [0 ffffffff 24 800] ------- [36:255 -1:255 27 0] [0x2 4 1 [1 0] [7 4]] (REQUEST)
r 1.060185515 _35_ RTR  --- 0 AODV 48 [0 ffffffff 24 800] ------- [36:255 -1:255 27 0] [0x2 4 1 [1 0] [7 4]] (REQUEST)
r 1.060185639 _28_ RTR  --- 0 AODV 48 [0 ffffffff 24 800] ------- [36:255 -1:255 27 0] [0x2 4 1 [1 0] [7 4]] (REQUEST)
r 1.060185699 _27_ RTR  --- 0 AODV 48 [0 ffffffff 24 800] ------- [36:255 -1:255 27 0] [0x2 4 1 [1 0] [7 4]] (REQUEST)
r 1.060185722 _34_ RTR  --- 0 AODV 48 [0 ffffffff 24 800] ------- [36:255 -1:255 27 0] [0x2 4 1 [1 0] [7 4]] (REQUEST)
r 1.060185722 _38_ RTR  --- 0 AODV 48 [0 ffffffff 24 800] ------- [36:255 -1:255 27 0] [0x2 4 1 [1 0] [7 4]] (REQUEST)
r 1.060185932 _33_ RTR  --- 0 AODV 48 [0 ffffffff 24 800] ------- [36:255 -1:255 27 0] [0x2 4 1 [1 0] [7 4]] (REQUEST)
s 1.060388718 _23_ RTR  --- 0 AODV 48 [0 ffffffff 1c 800] ------- [23:255 -1:255 29 0] [0x2 2 1 [35 0] [28 4]] (REQUEST)
s 1.060435054 _33_ RTR  --- 0 AODV 48 [0 ffffffff 1a 800] ------- [33:255 -1:255 29 0] [0x2 2 1 [8 0] [26 4]] (REQUEST)
s 1.060588364 _38_ RTR  --- 0 AODV 48 [0 ffffffff 1c 800] ------- [38:255 -1:255 29 0] [0x2 2 1 [35 0] [28 4]] (REQUEST)
s 1.061241200 _25_ RTR  --- 0 AODV 48 [0 ffffffff 1a 800] ------- [25:255 -1:255 29 0] [0x2 2 1 [8 0] [26 4]] (REQUEST)
s 1.061454635 _27_ RTR  --- 0 AODV 48 [0 ffffffff 1c 800] ------- [27:255 -1:255 29 0] [0x2 2 1 [35 0] [28 4]] (REQUEST)
s 1.061517602 _12_ RTR  --- 0 AODV 48 [0 ffffffff 1c 800] ------- [12:255 -1:255 29 0] [0x2 2 1 [35 0] [28 4]] (REQUEST)
s 1.061681526 _11_ RTR  --- 0 AODV 48 [0 ffffffff 1c 800] ------- [11:255 -1:255 29 0] [0x2 2 1 [35 0] [28 4]] (REQUEST)
s 1.061961727 _3_ AGT  --- 4 tcp 40 [0 0 0 0] ------- [3:0 16:1 32 0] [0 0] 0 0
r 1.061961727 _3_ RTR  --- 4 tcp 40 [0 0 0 0] ------- [3:0 16:1 32 0] [0 0] 0 0
s 1.061961727 _3_ RTR  --- 0 AODV 48 [0 0 0 0] ------- [3:255 -1:255 30 0] [0x2 1 1 [16 0] [3 4]] (REQUEST)
s 1.062028508 _14_ RTR  --- 0 AODV 48 [0 ffffffff d 800] ------- [14:255 -1:255 29 0] [0x2 2 1 [31 0] [13 4]] (REQUEST)
s 1.062151104 _26_ RTR  --- 0 AODV 48 [0 ffffffff 1c 800] ------- [26:255 -1:255 29 0] [0x2 2 1 [35 0] [28 4]] (REQUEST)
r 1.062453117 _17_ RTR  --- 0 AODV 48 [0 ffffffff 10 800] ------- [16:255 -1:255 27 0] [0x2 4 1 [1 0] [7 4]] (REQUEST)
r 1.062453244 _8_ RTR  --- 0 AODV 48 [0 ffffffff 10 800] ------- [16:255 -1:255 27 0] [0x2 4 1 [1 0] [7 4]] (REQUEST)
r 1.062453244 _24_ RTR  --- 0 AODV 48 [0 ffffffff 10 800] ------- [16:255 -1:255 27 0] [0x2 4 1 [1 0] [7 4]] (REQUEST)
r 1.062453302 _9_ RTR  --- 0 AODV 48 [0 ffffffff 10 800] ------- [16:255 -1:255 27 0] [0x2 4 1 [1 0] [7 4]] (REQUEST)
r 1.062453302 _25_ RTR  --- 0 AODV 48 [0 ffffffff 10 800] ------- [16:255 -1:255 27 0] [0x2 4 1 [1 0] [7 4]] (REQUEST)
s 1.062489558 _19_ RTR  --- 0 AODV 48 [0 ffffffff 1c 800] ------- [19:255 -1:255 29 0] [0x2 2 1 [35 0] [28 4]] (REQUEST)
s 1.062516934 _37_ RTR  --- 0 AODV 48 [0 ffffffff 1c 800] ------- [37:255 -1:255 29 0] [0x2 2 1 [35 0] [28 4]] (REQUEST)
r 1.062541119 _21_ RTR  --- 0 AODV 48 [0 ffffffff 14 800] ------- [20:255 -1:255 29 0] [0x2 2 1 [35 0] [28 4]] (REQUEST)
r 1.062541122 _19_ RTR  --- 0 AODV 48 [0 ffffffff 14 800] ------- [20:255 -1:255 29 0] [0x2 2 1 [35 0] [28 4]] (REQUEST)
r 1.062541246 _12_ RTR  --- 0 AODV 48 [0 ffffffff 14 800] ------- [20:255 -1:255 29 0] [0x2 2 1 [35 0] [28 4]] (REQUEST)
r 1.062541246 _28_ RTR  --- 0 AODV 48 [0 ffffffff 14 800] ------- [20:255 -1:255 29 0] [0x2 2 1 [35 0] [28 4]] (REQUEST)
r 1.062541305 _13_ RTR  --- 0 AODV 48 [0 ffffffff 14 800] ------- [20:255 -1:255 29 0] [0x2 2 1 [35 0] [28 4]] (REQUEST)
r 1.062541305 _29_ RTR  --- 0 AODV 48 [0 ffffffff 14 800] ------- [20:255 -1:255 29 0] [0x2 2 1 [35 0] [28 4]] (REQUEST)
r 1.062541306 _11_ RTR  --- 0 AODV 48 [0 ffffffff 14 800] ------- [20:255 -1:255 29 0] [0x2 2 1 [35 0] [28 4]] (REQUEST)
r 1.062541306 _27_ RTR  --- 0 AODV 48 [0 ffffffff 14 800] ------- [20:255 -1:255 29 0] [0x2 2 1 [35 0] [28 4]] (REQUEST)
r 1.062541329 _22_ RTR  --- 0 AODV 48 [0 ffffffff 14 800] ------- [20:255 -1:255 29 0] [0x2 2 1 [35 0] [28 4]] (REQUEST)
r 1.062541446 _14_ RTR  --- 0 AODV 48 [0 ffffffff 14 800] ------- [20:255 -1:255 29 0] [0x2 2 1 [35 0] [28 4]] (REQUEST)
r 1.062541446 _30_ RTR  --- 0 AODV 48 [0 ffffffff 14 800] ------- [20:255 -1:255 29 0] [0x2 2 1 [35 0] [28 4]] (REQUEST)
r 1.062541536 _23_ RTR  --- 0 AODV 48 [0 ffffffff 14 800] ------- [20:255 -1:255 29 0] [0x2 2 1 [35 0] [28 4]] (REQUEST)
r 1.062541619 _15_ RTR  --- 0 AODV 48 [0 ffffffff 14 800] ------- [20:255 -1:255 29 0] [0x2 2 1 [35 0] [28 4]] (REQUEST)
r 1.062541619 _31_ RTR  --- 0 AODV 48 [0 ffffffff 14 800] ------- [20:255 -1:255 29 0] [0x2 2 1 [35 0] [28 4]] (REQUEST)
r 1.062541699 _6_ RTR  --- 0 AODV 48 [0 ffffffff 14 800] ------- [20:255 -1:255 29 0] [0x2 2 1 [35 0] [28 4]] (REQUEST)
r 1.062541699 _38_ RTR  --- 0 AODV 48 [0 ffffffff 14 800] ------- [20:255 -1:255 29 0] [0x2 2 1 [35 0] [28 4]] (REQUEST)
s 1.063274532 _15_ RTR  --- 0 AODV 48 [0 ffffffff d 800] ------- [15:255 -1:255 29 0] [0x2 2 1 [31 0] [13 4]] (REQUEST)
s 1.063398781 _6_ RTR  --- 0 AODV 48 [0 ffffffff 14 800] ------- [6:255 -1:255 28 0] [0x2 3 1 [35 0] [28 4]] (REQUEST)
s 1.063667660 _4_ RTR  --- 0 AODV 48 [0 ffffffff d 800] ------- [4:255 -1:255 29 0] [0x2 2 1 [31 0] [13 4]] (REQUEST)
s 1.063926797 _7_ RTR  --- 0 AODV 48 [0 ffffffff d 800] ------- [7:255 -1:255 29 0] [0x2 2 1 [31 0] [13 4]] (REQUEST)
s 1.064158983 _12_ RTR  --- 0 AODV 48 [0 ffffffff d 800] ------- [12:255 -1:255 29 0] [0x2 2 1 [31 0] [13 4]] (REQUEST)
s 1.064603246 _34_ RTR  --- 0 AODV 48 [0 ffffffff 24 800] ------- [34:255 -1:255 26 0] [0x2 5 1 [1 0] [7 4]] (REQUEST)
r 1.064882628 _33_ RTR  --- 0 AODV 48 [0 ffffffff 20 800] ------- [32:255 -1:255 29 0] [0x2 2 1 [8 0] [26 4]] (REQUEST)
r 1.064882755 _24_ RTR  --- 0 AODV 48 [0 ffffffff 20 800] ------- [32:255 -1:255 29 0] [0x2 2 1 [8 0] [26 4]] (REQUEST)
r 1.064882813 _25_ RTR  --- 0 AODV 48 [0 ffffffff 20 800] ------- [32:255 -1:255 29 0] [0x2 2 1 [8 0] [26 4]] (REQUEST)
r 1.064882838 _34_ RTR  --- 0 AODV 48 [0 ffffffff 20 800] ------- [32:255 -1:255 29 0] [0x2 2 1 [8 0] [26 4]] (REQUEST)
r 1.064882955 _26_ RTR  --- 0 AODV 48 [0 ffffffff 20 800] ------- [32:255 -1:255 29 0] [0x2 2 1 [8 0] [26 4]] (REQUEST)
r 1.064883088 _16_ RTR  --- 0 AODV 48 [0 ffffffff 20 800] ------- [32:255 -1:255 29 0] [0x2 2 1 [8 0] [26 4]] (REQUEST)
r 1.064883119 _17_ RTR  --- 0 AODV 48 [0 ffffffff 20 800] ------- [32:255 -1:255 29 0] [0x2 2 1 [8 0] [26 4]] (REQUEST)
r 1.064950925 _22_ RTR  --- 0 AODV 48 [0 ffffffff 17 800] ------- [23:255 -1:255 29 0] [0x2 2 1 [35 0] [28 4]] (REQUEST)