n -t * -s 0  -x 0 -y 0 -Z 0 -z 20  -v circle -c black
n -t * -s 1  -x 0 -y 62 -Z 0 -z 20  -v circle -c black
n -t * -s 2  -x 0 -y 125 -Z 0 -z 20  -v circle -c black
n -t * -s 3  -x 0 -y 187 -Z 0 -z 20  -v circle -c black
n -t * -s 4  -x 0 -y 250 -Z 0 -z 20  -v circle -c black
n -t * -s 5  -x 0 -y 312 -Z 0 -z 20  -v circle -c black
n -t * -s 6  -x 0 -y 375 -Z 0 -z 20  -v circle -c black
n -t * -s 7  -x 0 -y 437 -Z 0 -z 20  -v circle -c black
n -t * -s 8  -x 100 -y 0 -Z 0 -z 20  -v circle -c black
n -t * -s 9  -x 100 -y 62 -Z 0 -z 20  -v circle -c black
n -t * -s 10  -x 100 -y 125 -Z 0 -z 20  -v circle -c black
n -t * -s 11  -x 100 -y 187 -Z 0 -z 20  -v circle -c black
n -t * -s 12  -x 100 -y 250 -Z 0 -z 20  -v circle -c black
n -t * -s 13  -x 100 -y 312 -Z 0 -z 20  -v circle -c black
n -t * -s 14  -x 100 -y 375 -Z 0 -z 20  -v circle -c black
n -t * -s 15  -x 100 -y 437 -Z 0 -z 20  -v circle -c black
n -t * -s 16  -x 200 -y 0 -Z 0 -z 20  -v circle -c black
n -t * -s 17  -x 200 -y 62 -Z 0 -z 20  -v circle -c black
n -t * -s 18  -x 200 -y 125 -Z 0 -z 20  -v circle -c black
n -t * -s 19  -x 200 -y 187 -Z 0 -z 20  -v circle -c black
n -t * -s 20  -x 200 -y 250 -Z 0 -z 20  -v circle -c black
n -t * -s 21  -x 200 -y 312 -Z 0 -z 20  -v circle -c black
n -t * -s 22  -x 200 -y 375 -Z 0 -z 20  -v circle -c black
n -t * -s 23  -x 200 -y 437 -Z 0 -z 20  -v circle -c black
n -t * -s 24  -x 300 -y 0 -Z 0 -z 20  -v circle -c black
n -t * -s 25  -x 300 -y 62 -Z 0 -z 20  -v circle -c black
n -t * -s 26  -x 300 -y 125 -Z 0 -z 20  -v circle -c black
n -t * -s 27  -x 300 -y 187 -Z 0 -z 20  -v circle -c black
n -t * -s 28  -x 300 -y 250 -Z 0 -z 20  -v circle -c black
n -t * -s 29  -x 300 -y 312 -Z 0 -z 20  -v circle -c black
n -t * -s 30  -x 300 -y 375 -Z 0 -z 20  -v circle -c black
n -t * -s 31  -x 300 -y 437 -Z 0 -z 20  -v circle -c black
n -t * -s 32  -x 400 -y 0 -Z 0 -z 20  -v circle -c black
n -t * -s 33  -x 400 -y 62 -Z 0 -z 20  -v circle -c black
n -t * -s 34  -x 400 -y 125 -Z 0 -z 20  -v circle -c black
n -t * -s 35  -x 400 -y 187 -Z 0 -z 20  -v circle -c black
n -t * -s 36  -x 400 -y 250 -Z 0 -z 20  -v circle -c black
n -t * -s 37  -x 400 -y 312 -Z 0 -z 20  -v circle -c black
n -t * -s 38  -x 400 -y 375 -Z 0 -z 20  -v circle -c black
n -t * -s 39  -x 400 -y 437 -Z 0 -z 20  -v circle -c black
V -t * -v 1.0a5 -a 0
W -t * -x 500 -y 500
A -t * -n 1 -p 0 -o 0x7fffffff -c 30 -a 1
A -t * -h 1 -m 1073741823 -s 0
+ -t 1.106011134 -s 37 -d -1 -p tcp -e 40 -c 2 -a 0 -i 0 -k AGT 
- -t 1.106011134 -s 37 -d -1 -p tcp -e 40 -c 2 -a 0 -i 0 -k AGT
h -t 1.106011134 -s 37 -d -1 -p tcp -e 40 -c 2 -a 0 -i 0 -k AGT
+ -t 1.106011134 -s 37 -d -1 -p AODV -e 48 -c 2 -a 0 -i 0 -k RTR 
- -t 1.106011134 -s 37 -d -1 -p AODV -e 48 -c 2 -a 0 -i 0 -k RTR
h -t 1.106011134 -s 37 -d -1 -p AODV -e 48 -c 2 -a 0 -i 0 -k RTR
r -t 1.109933340 -s 36 -d -1 -p AODV -e 48 -c 2 -a 0 -i 0 -k RTR
r -t 1.109933344 -s 38 -d -1 -p AODV -e 48 -c 2 -a 0 -i 0 -k RTR
r -t 1.109933467 -s 29 -d -1 -p AODV -e 48 -c 2 -a 0 -i 0 -k RTR
r -t 1.109933526 -s 28 -d -1 -p AODV -e 48 -c 2 -a 0 -i 0 -k RTR
r -t 1.109933528 -s 30 -d -1 -p AODV -e 48 -c 2 -a 0 -i 0 -k RTR
r -t 1.109933550 -s 35 -d -1 -p AODV -e 48 -c 2 -a 0 -i 0 -k RTR
r -t 1.109933550 -s 39 -d -1 -p AODV -e 48 -c 2 -a 0 -i 0 -k RTR
r -t 1.109933667 -s 31 -d -1 -p AODV -e 48 -c 2 -a 0 -i 0 -k RTR
r -t 1.109933667 -s 27 -d -1 -p AODV -e 48 -c 2 -a 0 -i 0 -k RTR
r -t 1.109933757 -s 34 -d -1 -p AODV -e 48 -c 2 -a 0 -i 0 -k RTR
r -t 1.109933800 -s 21 -d -1 -p AODV -e 48 -c 2 -a 0 -i 0 -k RTR
r -t 1.109933832 -s 20 -d -1 -p AODV -e 48 -c 2 -a 0 -i 0 -k RTR
r -t 1.109933833 -s 22 -d -1 -p AODV -e 48 -c 2 -a 0 -i 0 -k RTR
r -t 1.109933840 -s 26 -d -1 -p AODV -e 48 -c 2 -a 0 -i 0 -k RTR
r -t 1.109933920 -s 23 -d -1 -p AODV -e 48 -c 2 -a 0 -i 0 -k RTR
r -t 1.109933920 -s 19 -d -1 -p AODV -e 48 -c 2 -a 0 -i 0 -k RTR
r -t 1.109933967 -s 33 -d -1 -p AODV -e 48 -c 2 -a 0 -i 0 -k RTR
+ -t 1.110328792 -s 34 -d -1 -p AODV -e 48 -c 2 -a 0 -i 0 -k RTR 
- -t 1.110328792 -s 34 -d -1 -p AODV -e 48 -c 2 -a 0 -i 0 -k RTR
h -t 1.110328792 -s 34 -d -1 -p AODV -e 48 -c 2 -a 0 -i 0 -k RTR
+ -t 1.110520899 -s 23 -d -1 -p AODV -e 48 -c 2 -a 0 -i 0 -k RTR 
- -t 1.110520899 -s 23 -d -1 -p AODV -e 48 -c 2 -a 0 -i 0 -k RTR
h -t 1.110520899 -s 23 -d -1 -p AODV -e 48 -c 2 -a 0 -i 0 -k RTR
+ -t 1.110578440 -s 39 -d -1 -p AODV -e 48 -c 2 -a 0 -i 0 -k RTR 
- -t 1.110578440 -s 39 -d -1 -p AODV -e 48 -c 2 -a 0 -i 0 -k RTR
h -t 1.110578440 -s 39 -d -1 -p AODV -e 48 -c 2 -a 0 -i 0 -k RTR
+ -t 1.111518665 -s 30 -d -1 -p AODV -e 48 -c 2 -a 0 -i 0 -k RTR 
- -t 1.111518665 -s 30 -d -1 -p AODV -e 48 -c 2 -a 0 -i 0 -k RTR
h -t 1.111518665 -s 30 -d -1 -p AODV -e 48 -c 2 -a 0 -i 0 -k RTR
+ -t 1.111700515 -s 31 -d -1 -p AODV -e 48 -c 2 -a 0 -i 0 -k RTR 
- -t 1.111700515 -s 31 -d -1 -p AODV -e 48 -c 2 -a 0 -i 0 -k RTR
h -t 1.111700515 -s 31 -d -1 -p AODV -e 48 -c 2 -a 0 -i 0 -k RTR
+ -t 1.112202139 -s 22 -d -1 -p AODV -e 48 -c 2 -a 0 -i 0 -k RTR 
- -t 1.112202139 -s 22 -d -1 -p AODV -e 48 -c 2 -a 0 -i 0 -k RTR
h -t 1.112202139 -s 22 -d -1 -p AODV -e 48 -c 2 -a 0 -i 0 -k RTR
+ -t 1.112288957 -s 35 -d -1 -p AODV -e 48 -c 2 -a 0 -i 0 -k RTR 
- -t 1.112288957 -s 35 -d -1 -p AODV -e 48 -c 2 -a 0 -i 0 -k RTR
h -t 1.112288957 -s 35 -d -1 -p AODV -e 48 -c 2 -a 0 -i 0 -k RTR
+ -t 1.113333533 -s 19 -d -1 -p AODV -e 48 -c 2 -a 0 -i 0 -k RTR 
- -t 1.113333533 -s 19 -d -1 -p AODV -e 48 -c 2 -a 0 -i 0 -k RTR
h -t 1.113333533 -s 19 -d -1 -p AODV -e 48 -c 2 -a 0 -i 0 -k RTR
r -t 1.113860647 -s 38 -d -1 -p AODV -e 48 -c 2 -a 0 -i 0 -k RTR
r -t 1.113860774 -s 31 -d -1 -p AODV -e 48 -c 2 -a 0 -i 0 -k RTR
r -t 1.113860833 -s 30 -d -1 -p AODV -e 48 -c 2 -a 0 -i 0 -k RTR
r -t 1.113860857 -s 37 -d -1 -p AODV -e 48 -c 2 -a 0 -i 0 -k RTR
r -t 1.113860974 -s 29 -d -1 -p AODV -e 48 -c 2 -a 0 -i 0 -k RTR
r -t 1.113861064 -s 36 -d -1 -p AODV -e 48 -c 2 -a 0 -i 0 -k RTR
r -t 1.113861107 -s 23 -d -1 -p AODV -e 48 -c 2 -a 0 -i 0 -k RTR
r -t 1.113861138 -s 22 -d -1 -p AODV -e 48 -c 2 -a 0 -i 0 -k RTR
r -t 1.113861147 -s 28 -d -1 -p AODV -e 48 -c 2 -a 0 -i 0 -k RTR
r -t 1.113861227 -s 21 -d -1 -p AODV -e 48 -c 2 -a 0 -i 0 -k RTR
r -t 1.113861274 -s 35 -d -1 -p AODV -e 48 -c 2 -a 0 -i 0 -k RTR
+ -t 1.114781081 -s 36 -d -1 -p AODV -e 48 -c 2 -a 0 -i 0 -k RTR 
- -t 1.114781081 -s 36 -d -1 -p AODV -e 48 -c 2 -a 0 -i 0 -k RTR
h -t 1.114781081 -s 36 -d -1 -p AODV -e 48 -c 2 -a 0 -i 0 -k RTR
+ -t 1.115718813 -s 21 -d -1 -p AODV -e 48 -c 2 -a 0 -i 0 -k RTR 
- -t 1.115718813 -s 21 -d -1 -p AODV -e 48 -c 2 -a 0 -i 0 -k RTR
h -t 1.115718813 -s 21 -d -1 -p AODV -e 48 -c 2 -a 0 -i 0 -k RTR
r -t 1.116124346 -s 23 -d -1 -p AODV -e 48 -c 2 -a 0 -i 0 -k RTR
r -t 1.116124349 -s 21 -d -1 -p AODV -e 48 -c 2 -a 0 -i 0 -k RTR
r -t 1.116124473 -s 14 -d -1 -p AODV -e 48 -c 2 -a 0 -i 0 -k RTR
r -t 1.116124473 -s 30 -d -1 -p AODV -e 48 -c 2 -a 0 -i 0 -k RTR
r -t 1.116124532 -s 15 -d -1 -p AODV -e 48 -c 2 -a 0 -i 0 -k RTR
r -t 1.116124532 -s 31 -d -1 -p AODV -e 48 -c 2 -a 0 -i 0 -k RTR
r -t 1.116124533 -s 13 -d -1 -p AODV -e 48 -c 2 -a 0 -i 0 -k RTR
r -t 1.116124533 -s 29 -d -1 -p AODV -e 48 -c 2 -a 0 -i 0 -k RTR
r -t 1.116124556 -s 20 -d -1 -p AODV -e 48 -c 2 -a 0 -i 0 -k RTR
r -t 1.116124673 -s 12 -d -1 -p AODV -e 48 -c 2 -a 0 -i 0 -k RTR
r -t 1.116124673 -s 28 -d -1 -p AODV -e 48 -c 2 -a 0 -i 0 -k RTR
r -t 1.116124766 -s 19 -d -1 -p AODV -e 48 -c 2 -a 0 -i 0 -k RTR
r -t 1.116124806 -s 6 -d -1 -p AODV -e 48 -c 2 -a 0 -i 0 -k RTR
r -t 1.116124806 -s 38 -d -1 -p AODV -e 48 -c 2 -a 0 -i 0 -k RTR
r -t 1.116124837 -s 7 -d -1 -p AODV -e 48 -c 2 -a 0 -i 0 -k RTR
r -t 1.116124837 -s 39 -d -1 -p AODV -e 48 -c 2 -a 0 -i 0 -k RTR
r -t 1.116124838 -s 5 -d -1 -p AODV -e 48 -c 2 -a 0 -i 0 -k RTR
r -t 1.116124838 -s 37 -d -1 -p AODV -e 48 -c 2 -a 0 -i 0 -k RTR
r -t 1.116124849 -s 11 -d -1 -p AODV -e 48 -c 2 -a 0 -i 0 -k RTR
r -t 1.116124849 -s 27 -d -1 -p AODV -e 48 -c 2 -a 0 -i 0 -k RTR
r -t 1.116124926 -s 4 -d -1 -p AODV -e 48 -c 2 -a 0 -i 0 -k RTR
r -t 1.116124926 -s 36 -d -1 -p AODV -e 48 -c 2 -a 0 -i 0 -k RTR
r -t 1.116124973 -s 18 -d -1 -p AODV -e 48 -c 2 -a 0 -i 0 -k RTR
+ -t 1.116162366 -s 29 -d -1 -p AODV -e 48 -c 2 -a 0 -i 0 -k RTR 
- -t 1.116162366 -s 29 -d -1 -p AODV -e 48 -c 2 -a 0 -i 0 -k RTR
h -t 1.116162366 -s 29 -d -1 -p AODV -e 48 -c 2 -a 0 -i 0 -k RTR
+ -t 1.116995913 -s 20 -d -1 -p AODV -e 48 -c 2 -a 0 -i 0 -k RTR 
- -t 1.116995913 -s 20 -d -1 -p AODV -e 48 -c 2 -a 0 -i 0 -k RTR
h -t 1.116995913 -s 20 -d -1 -p AODV -e 48 -c 2 -a 0 -i 0 -k RTR
+ -t 1.117743398 -s 5 -d -1 -p AODV -e 48 -c 2 -a 0 -i 0 -k RTR 
- -t 1.117743398 -s 5 -d -1 -p AODV -e 48 -c 2 -a 0 -i 0 -k RTR
h -t 1.117743398 -s 5 -d -1 -p AODV -e 48 -c 2 -a 0 -i 0 -k RTR
+ -t 1.117874347 -s 33 -d -1 -p AODV -e 48 -c 2 -a 0 -i 0 -k RTR 
- -t 1.117874347 -s 33 -d -1 -p AODV -e 48 -c 2 -a 0 -i 0 -k RTR
h -t 1.117874347 -s 33 -d -1 -p AODV -e 48 -c 2 -a 0 -i 0 -k RTR
+ -t 1.118183498 -s 12 -d -1 -p AODV -e 48 -c 2 -a 0 -i 0 -k RTR 
- -t 1.118183498 -s 12 -d -1 -p AODV -e 48 -c 2 -a 0 -i 0 -k RTR
h -t 1.118183498 -s 12 -d -1 -p AODV -e 48 -c 2 -a 0 -i 0 -k RTR
+ -t 1.118236253 -s 26 -d -1 -p AODV -e 48 -c 2 -a 0 -i 0 -k RTR 
- -t 1.118236253 -s 26 -d -1 -p AODV -e 48 -c 2 -a 0 -i 0 -k RTR
h -t 1.118236253 -s 26 -d -1 -p AODV -e 48 -c 2 -a 0 -i 0 -k RTR
+ -t 1.118441354 -s 28 -d -1 -p AODV -e 48 -c 2 -a 0 -i 0 -k RTR 
- -t 1.118441354 -s 28 -d -1 -p AODV -e 48 -c 2 -a 0 -i 0 -k RTR
h -t 1.118441354 -s 28 -d -1 -p AODV -e 48 -c 2 -a 0 -i 0 -k RTR
r -t 1.118448871 -s 31 -d -1 -p AODV -e 48 -c 2 -a 0 -i 0 -k RTR
r -t 1.118448875 -s 29 -d -1 -p AODV -e 48 -c 2 -a 0 -i 0 -k RTR
r -t 1.118448998 -s 22 -d -1 -p AODV -e 48 -c 2 -a 0 -i 0 -k RTR
r -t 1.118448998 -s 38 -d -1 -p AODV -e 48 -c 2 -a 0 -i 0 -k RTR
r -t 1.118449057 -s 23 -d -1 -p AODV -e 48 -c 2 -a 0 -i 0 -k RTR
r -t 1.118449057 -s 39 -d -1 -p AODV -e 48 -c 2 -a 0 -i 0 -k RTR
r -t 1.118449059 -s 21 -d -1 -p AODV -e 48 -c 2 -a 0 -i 0 -k RTR
r -t 1.118449363 -s 15 -d -1 -p AODV -e 48 -c 2 -a 0 -i 0 -k RTR
r -t 1.118579164 -s 34 -d -1 -p AODV -e 48 -c 2 -a 0 -i 0 -k RTR
r -t 1.118579167 -s 36 -d -1 -p AODV -e 48 -c 2 -a 0 -i 0 -k RTR
r -t 1.118579290 -s 27 -d -1 -p AODV -e 48 -c 2 -a 0 -i 0 -k RTR
r -t 1.118579349 -s 26 -d -1 -p AODV -e 48 -c 2 -a 0 -i 0 -k RTR
r -t 1.118579374 -s 33 -d -1 -p AODV -e 48 -c 2 -a 0 -i 0 -k RTR
r -t 1.118579491 -s 25 -d -1 -p AODV -e 48 -c 2 -a 0 -i 0 -k RTR
r -t 1.118579580 -s 32 -d -1 -p AODV -e 48 -c 2 -a 0 -i 0 -k RTR
+ -t 1.118647115 -s 27 -d -1 -p AODV -e 48 -c 2 -a 0 -i 0 -k RTR 
- -t 1.118647115 -s 27 -d -1 -p AODV -e 48 -c 2 -a 0 -i 0 -k RTR
h -t 1.118647115 -s 27 -d -1 -p AODV -e 48 -c 2 -a 0 -i 0 -k RTR
+ -t 1.118753082 -s 14 -d -1 -p AODV -e 48 -c 2 -a 0 -i 0 -k RTR 
- -t 1.118753082 -s 14 -d -1 -p AODV -e 48 -c 2 -a 0 -i 0 -k RTR
h -t 1.118753082 -s 14 -d -1 -p AODV -e 48 -c 2 -a 0 -i 0 -k RTR
+ -t 1.118772333 -s 11 -d -1 -p AODV -e 48 -c 2 -a 0 -i 0 -k RTR 
- -t 1.118772333 -s 11 -d -1 -p AODV -e 48 -c 2 -a 0 -i 0 -k RTR
h -t 1.118772333 -s 11 -d -1 -p AODV -e 48 -c 2 -a 0 -i 0 -k RTR
+ -t 1.118901352 -s 38 -d -1 -p AODV -e 48 -c 2 -a 0 -i 0 -k RTR 
- -t 1.118901352 -s 38 -d -1 -p AODV -e 48 -c 2 -a 0 -i 0 -k RTR
h -t 1.118901352 -s 38 -d -1 -p AODV -e 48 -c 2 -a 0 -i 0 -k RTR
+ -t 1.119911299 -s 4 -d -1 -p AODV -e 48 -c 2 -a 0 -i 0 -k RTR 
- -t 1.119911299 -s 4 -d -1 -p AODV -e 48 -c 2 -a 0 -i 0 -k RTR
h -t 1.119911299 -s 4 -d -1 -p AODV -e 48 -c 2 -a 0 -i 0 -k RTR
r -t 1.120852572 -s 28 -d -1 -p AODV -e 48 -c 2 -a 0 -i 0 -k RTR
r -t 1.120852576 -s 30 -d -1 -p AODV -e 48 -c 2 -a 0 -i 0 -k RTR
r -t 1.120852699 -s 21 -d -1 -p AODV -e 48 -c 2 -a 0 -i 0 -k RTR
r -t 1.120852699 -s 37 -d -1 -p AODV -e 48 -c 2 -a 0 -i 0 -k RTR
r -t 1.120852758 -s 20 -d -1 -p AODV -e 48 -c 2 -a 0 -i 0 -k RTR
r -t 1.120852758 -s 36 -d -1 -p AODV -e 48 -c 2 -a 0 -i 0 -k RTR
r -t 1.120852760 -s 22 -d -1 -p AODV -e 48 -c 2 -a 0 -i 0 -k RTR
r -t 1.120852760 -s 38 -d -1 -p AODV -e 48 -c 2 -a 0 -i 0 -k RTR
r -t 1.120852782 -s 27 -d -1 -p AODV -e 48 -c 2 -a 0 -i 0 -k RTR
r -t 1.120852782 -s 31 -d -1 -p AODV -e 48 -c 2 -a 0 -i 0 -k RTR
r -t 1.120852899 -s 23 -d -1 -p AODV -e 48 -c 2 -a 0 -i 0 -k RTR
r -t 1.120852899 -s 19 -d -1 -p AODV -e 48 -c 2 -a 0 -i 0 -k RTR
r -t 1.120852899 -s 35 -d -1 -p AODV -e 48 -c 2 -a 0 -i 0 -k RTR
r -t 1.120852899 -s 39 -d -1 -p AODV -e 48 -c 2 -a 0 -i 0 -k RTR
r -t 1.120852989 -s 26 -d -1 -p AODV -e 48 -c 2 -a 0 -i 0 -k RTR
r -t 1.120853032 -s 13 -d -1 -p AODV -e 48 -c 2 -a 0 -i 0 -k RTR
r -t 1.120853064 -s 12 -d -1 -p AODV -e 48 -c 2 -a 0 -i 0 -k RTR
r -t 1.120853065 -s 14 -d -1 -p AODV -e 48 -c 2 -a 0 -i 0 -k RTR
r -t 1.120853073 -s 18 -d -1 -p AODV -e 48 -c 2 -a 0 -i 0 -k RTR
r -t 1.120853073 -s 34 -d -1 -p AODV -e 48 -c 2 -a 0 -i 0 -k RTR
r -t 1.120853152 -s 15 -d -1 -p AODV -e 48 -c 2 -a 0 -i 0 -k RTR
r -t 1.120853152 -s 11 -d -1 -p AODV -e 48 -c 2 -a 0 -i 0 -k RTR
r -t 1.120853199 -s 25 -d -1 -p AODV -e 48 -c 2 -a 0 -i 0 -k RTR
+ -t 1.120919693 -s 15 -d -1 -p AODV -e 48 -c 2 -a 0 -i 0 -k RTR 
- -t 1.120919693 -s 15 -d -1 -p AODV -e 48 -c 2 -a 0 -i 0 -k RTR
h -t 1.120919693 -s 15 -d -1 -p AODV -e 48 -c 2 -a 0 -i 0 -k RTR
+ -t 1.122242255 -s 18 -d -1 -p AODV -e 48 -c 2 -a 0 -i 0 -k RTR 
- -t 1.122242255 -s 18 -d -1 -p AODV -e 48 -c 2 -a 0 -i 0 -k RTR
h -t 1.122242255 -s 18 -d -1 -p AODV -e 48 -c 2 -a 0 -i 0 -k RTR
+ -t 1.122697402 -s 7 -d -1 -p AODV -e 48 -c 2 -a 0 -i 0 -k RTR 
- -t 1.122697402 -s 7 -d -1 -p AODV -e 48 -c 2 -a 0 -i 0 -k RTR
h -t 1.122697402 -s 7 -d -1 -p AODV -e 48 -c 2 -a 0 -i 0 -k RTR
+ -t 1.122878582 -s 6 -d -1 -p AODV -e 48 -c 2 -a 0 -i 0 -k RTR 
- -t 1.122878582 -s 6 -d -1 -p AODV -e 48 -c 2 -a 0 -i 0 -k RTR
h -t 1.122878582 -s 6 -d -1 -p AODV -e 48 -c 2 -a 0 -i 0 -k RTR
r -t 1.123083002 -s 33 -d -1 -p AODV -e 48 -c 2 -a 0 -i 0 -k RTR
r -t 1.123209325 -s 28 -d -1 -p AODV -e 48 -c 2 -a 0 -i 0 -k RTR
+ -t 1.123621465 -s 13 -d -1 -p AODV -e 48 -c 2 -a 0 -i 0 -k RTR 
- -t 1.123621465 -s 13 -d -1 -p AODV -e 48 -c 2 -a 0 -i 0 -k RTR
h -t 1.123621465 -s 13 -d -1 -p AODV -e 48 -c 2 -a 0 -i 0 -k RTR
r -t 1.125337839 -s 13 -d -1 -p AODV -e 48 -c 2 -a 0 -i 0 -k RTR
r -t 1.125337842 -s 11 -d -1 -p AODV -e 48 -c 2 -a 0 -i 0 -k RTR
r -t 1.125337965 -s 4 -d -1 -p AODV -e 48 -c 2 -a 0 -i 0 -k RTR
r -t 1.125337965 -s 20 -d -1 -p AODV -e 48 -c 2 -a 0 -i 0 -k RTR
r -t 1.125338024 -s 5 -d -1 -p AODV -e 48 -c 2 -a 0 -i 0 -k RTR
r -t 1.125338024 -s 21 -d -1 -p AODV -e 48 -c 2 -a 0 -i 0 -k RTR
r -t 1.125338026 -s 3 -d -1 -p AODV -e 48 -c 2 -a 0 -i 0 -k RTR
r -t 1.125338026 -s 19 -d -1 -p AODV -e 48 -c 2 -a 0 -i 0 -k RTR
r -t 1.125338049 -s 10 -d -1 -p AODV -e 48 -c 2 -a 0 -i 0 -k RTR
r -t 1.125338049 -s 14 -d -1 -p AODV -e 48 -c 2 -a 0 -i 0 -k RTR
r -t 1.125338166 -s 6 -d -1 -p AODV -e 48 -c 2 -a 0 -i 0 -k RTR
r -t 1.125338166 -s 2 -d -1 -p AODV -e 48 -c 2 -a 0 -i 0 -k RTR
r -t 1.125338166 -s 18 -d -1 -p AODV -e 48 -c 2 -a 0 -i 0 -k RTR
r -t 1.125338166 -s 22 -d -1 -p AODV -e 48 -c 2 -a 0 -i 0 -k RTR
r -t 1.125338255 -s 15 -d -1 -p AODV -e 48 -c 2 -a 0 -i 0 -k RTR
r -t 1.125338259 -s 9 -d -1 -p AODV -e 48 -c 2 -a 0 -i 0 -k RTR
r -t 1.125338299 -s 28 -d -1 -p AODV -e 48 -c 2 -a 0 -i 0 -k RTR
r -t 1.125338330 -s 29 -d -1 -p AODV -e 48 -c 2 -a 0 -i 0 -k RTR
r -t 1.125338339 -s 7 -d -1 -p AODV -e 48 -c 2 -a 0 -i 0 -k RTR
r -t 1.125338339 -s 23 -d -1 -p AODV -e 48 -c 2 -a 0 -i 0 -k RTR
r -t 1.125338342 -s 1 -d -1 -p AODV -e 48 -c 2 -a 0 -i 0 -k RTR
r -t 1.125338342 -s 17 -d -1 -p AODV -e 48 -c 2 -a 0 -i 0 -k RTR
+ -t 1.125338342 -s 17 -d 12 -p AODV -e 44 -c 2 -a 0 -i 0 -k RTR 
- -t 1.125338342 -s 17 -d 12 -p AODV -e 44 -c 2 -a 0 -i 0 -k RTR
h -t 1.125338342 -s 17 -d 12 -p AODV -e 44 -c 2 -a 0 -i 0 -k RTR
r -t 1.125338418 -s 26 -d -1 -p AODV -e 48 -c 2 -a 0 -i 0 -k RTR
r -t 1.125338418 -s 30 -d -1 -p AODV -e 48 -c 2 -a 0 -i 0 -k RTR
r -t 1.125338465 -s 8 -d -1 -p AODV -e 48 -c 2 -a 0 -i 0 -k RTR
+ -t 1.125663101 -s 32 -d -1 -p AODV -e 48 -c 2 -a 0 -i 0 -k RTR 
- -t 1.125663101 -s 32 -d -1 -p AODV -e 48 -c 2 -a 0 -i 0 -k RTR
h -t 1.125663101 -s 32 -d -1 -p AODV -e 48 -c 2 -a 0 -i 0 -k RTR
+ -t 1.125693364 -s 3 -d -1 -p AODV -e 48 -c 2 -a 0 -i 0 -k RTR 
- -t 1.125693364 -s 3 -d -1 -p AODV -e 48 -c 2 -a 0 -i 0 -k RTR
h -t 1.125693364 -s 3 -d -1 -p AODV -e 48 -c 2 -a 0 -i 0 -k RTR
+ -t 1.126405439 -s 25 -d -1 -p tcp -e 40 -c 2 -a 0 -i 1 -k AGT 
- -t 1.126405439 -s 25 -d -1 -p tcp -e 40 -c 2 -a 0 -i 1 -k AGT
h -t 1.126405439 -s 25 -d -1 -p tcp -e 40 -c 2 -a 0 -i 1 -k AGT
+ -t 1.126405439 -s 25 -d -1 -p AODV -e 48 -c 2 -a 0 -i 0 -k RTR 
- -t 1.126405439 -s 25 -d -1 -p AODV -e 48 -c 2 -a 0 -i 0 -k RTR
h -t 1.126405439 -s 25 -d -1 -p AODV -e 48 -c 2 -a 0 -i 0 -k RTR
+ -t 1.126642526 -s 8 -d -1 -p AODV -e 48 -c 2 -a 0 -i 0 -k RTR 
- -t 1.126642526 -s 8 -d -1 -p AODV -e 48 -c 2 -a 0 -i 0 -k RTR
h -t 1.126642526 -s 8 -d -1 -p AODV -e 48 -c 2 -a 0 -i 0 -k RTR
+ -t 1.126801600 -s 25 -d -1 -p AODV -e 48 -c 2 -a 0 -i 0 -k RTR 
- -t 1.126801600 -s 25 -d -1 -p AODV -e 48 -c 2 -a 0 -i 0 -k RTR
h -t 1.126801600 -s 25 -d -1 -p AODV -e 48 -c 2 -a 0 -i 0 -k RTR
+ -t 1.126835159 -s 2 -d -1 -p AODV -e 48 -c 2 -a 0 -i 0 -k RTR 
- -t 1.126835159 -s 2 -d -1 -p AODV -e 48 -c 2 -a 0 -i 0 -k RTR
h -t 1.126835159 -s 2 -d -1 -p AODV -e 48 -c 2 -a 0 -i 0 -k RTR
r -t 1.127627106 -s 22 -d -1 -p AODV -e 48 -c 2 -a 0 -i 0 -k RTR
r -t 1.127627232 -s 15 -d -1 -p AODV -e 48 -c 2 -a 0 -i 0 -k RTR
r -t 1.127627232 -s 31 -d -1 -p AODV -e 48 -c 2 -a 0 -i 0 -k RTR
r -t 1.127627291 -s 14 -d -1 -p AODV -e 48 -c 2 -a 0 -i 0 -k RTR
r -t 1.127627432 -s 13 -d -1 -p AODV -e 48 -c 2 -a 0 -i 0 -k RTR
r -t 1.127627566 -s 7 -d -1 -p AODV -e 48 -c 2 -a 0 -i 0 -k RTR
r -t 1.127627597 -s 6 -d -1 -p AODV -e 48 -c 2 -a 0 -i 0 -k RTR
r -t 1.127727288 -s 37 -d -1 -p AODV -e 48 -c 2 -a 0 -i 0 -k RTR
r -t 1.127727291 -s 35 -d -1 -p AODV -e 48 -c 2 -a 0 -i 0 -k RTR
r -t 1.127727414 -s 28 -d -1 -p AODV -e 48 -c 2 -a 0 -i 0 -k RTR
r -t 1.127727475 -s 27 -d -1 -p AODV -e 48 -c 2 -a 0 -i 0 -k RTR
r -t 1.127727498 -s 34 -d -1 -p AODV -e 48 -c 2 -a 0 -i 0 -k RTR
r -t 1.127727615 -s 26 -d -1 -p AODV -e 48 -c 2 -a 0 -i 0 -k RTR
r -t 1.127727708 -s 33 -d -1 -p AODV -e 48 -c 2 -a 0 -i 0 -k RTR
r -t 1.127727791 -s 25 -d -1 -p AODV -e 48 -c 2 -a 0 -i 0 -k RTR
r -t 1.127727914 -s 32 -d -1 -p AODV -e 48 -c 2 -a 0 -i 0 -k RTR
+ -t 1.127838335 -s 5 -d -1 -p tcp -e 40 -c 2 -a 0 -i 2 -k AGT 
- -t 1.127838335 -s 5 -d -1 -p tcp -e 40 -c 2 -a 0 -i 2 -k AGT
h -t 1.127838335 -s 5 -d -1 -p tcp -e 40 -c 2 -a 0 -i 2 -k AGT
+ -t 1.127838335 -s 5 -d -1 -p AODV -e 48 -c 2 -a 0 -i 0 -k RTR 
- -t 1.127838335 -s 5 -d -1 -p AODV -e 48 -c 2 -a 0 -i 0 -k RTR
h -t 1.127838335 -s 5 -d -1 -p AODV -e 48 -c 2 -a 0 -i 0 -k RTR
+ -t 1.129785674 -s 9 -d -1 -p AODV -e 48 -c 2 -a 0 -i 0 -k RTR 
- -t 1.129785674 -s 9 -d -1 -p AODV -e 48 -c 2 -a 0 -i 0 -k RTR
h -t 1.129785674 -s 9 -d -1 -p AODV -e 48 -c 2 -a 0 -i 0 -k RTR
r -t 1.130327646 -s 24 -d -1 -p AODV -e 48 -c 2 -a 0 -i 0 -k RTR
r -t 1.130327649 -s 26 -d -1 -p AODV -e 48 -c 2 -a 0 -i 0 -k RTR
r -t 1.130327773 -s 17 -d -1 -p AODV -e 48 -c 2 -a 0 -i 0 -k RTR
r -t 1.130327773 -s 33 -d -1 -p AODV -e 48 -c 2 -a 0 -i 0 -k RTR
r -t 1.130327831 -s 16 -d -1 -p AODV -e 48 -c 2 -a 0 -i 0 -k RTR
r -t 1.130327831 -s 32 -d -1 -p AODV -e 48 -c 2 -a 0 -i 0 -k RTR
+ -t 1.130327831 -s 16 -d 25 -p AODV -e 44 -c 2 -a 0 -i 0 -k RTR 
- -t 1.130327831 -s 16 -d 25 -p AODV -e 44 -c 2 -a 0 -i 0 -k RTR
h -t 1.130327831 -s 16 -d 25 -p AODV -e 44 -c 2 -a 0 -i 0 -k RTR
r -t 1.130327833 -s 34 -d -1 -p AODV -e 48 -c 2 -a 0 -i 0 -k RTR
r -t 1.130327856 -s 27 -d -1 -p AODV -e 48 -c 2 -a 0 -i 0 -k RTR
r -t 1.130327973 -s 35 -d -1 -p AODV -e 48 -c 2 -a 0 -i 0 -k RTR
r -t 1.130328149 -s 36 -d -1 -p AODV -e 48 -c 2 -a 0 -i 0 -k RTR
r -t 1.130437366 -s 3 -d -1 -p AODV -e 48 -c 2 -a 0 -i 0 -k RTR
r -t 1.130437369 -s 1 -d -1 -p AODV -e 48 -c 2 -a 0 -i 0 -k RTR
r -t 1.130437493 -s 10 -d -1 -p AODV -e 48 -c 2 -a 0 -i 0 -k RTR
r -t 1.130437552 -s 11 -d -1 -p AODV -e 48 -c 2 -a 0 -i 0 -k RTR
r -t 1.130437576 -s 0 -d -1 -p AODV -e 48 -c 2 -a 0 -i 0 -k RTR
r -t 1.130437576 -s 4 -d -1 -p AODV -e 48 -c 2 -a 0 -i 0 -k RTR
r -t 1.130437783 -s 5 -d -1 -p AODV -e 48 -c 2 -a 0 -i 0 -k RTR
+ -t 1.130675359 -s 35 -d -1 -p AODV -e 48 -c 2 -a 0 -i 0 -k RTR 
- -t 1.130675359 -s 35 -d -1 -p AODV -e 48 -c 2 -a 0 -i 0 -k RTR
h -t 1.130675359 -s 35 -d -1 -p AODV -e 48 -c 2 -a 0 -i 0 -k RTR
+ -t 1.130984158 -s 36 -d -1 -p AODV -e 48 -c 2 -a 0 -i 0 -k RTR 
- -t 1.130984158 -s 36 -d -1 -p AODV -e 48 -c 2 -a 0 -i 0 -k RTR
h -t 1.130984158 -s 36 -d -1 -p AODV -e 48 -c 2 -a 0 -i 0 -k RTR
+ -t 1.131654697 -s 1 -d -1 -p AODV -e 48 -c 2 -a 0 -i 0 -k RTR 
- -t 1.131654697 -s 1 -d -1 -p AODV -e 48 -c 2 -a 0 -i 0 -k RTR
h -t 1.131654697 -s 1 -d -1 -p AODV -e 48 -c 2 -a 0 -i 0 -k RTR
+ -t 1.131813217 -s 10 -d -1 -p AODV -e 48 -c 2 -a 0 -i 0 -k RTR 
- -t 1.131813217 -s 10 -d -1 -p AODV -e 48 -c 2 -a 0 -i 0 -k RTR
h -t 1.131813217 -s 10 -d -1 -p AODV -e 48 -c 2 -a 0 -i 0 -k RTR
r -t 1.132472040 -s 19 -d -1 -p AODV -e 48 -c 2 -a 0 -i 0 -k RTR
r -t 1.132472043 -s 17 -d -1 -p AODV -e 48 -c 2 -a 0 -i 0 -k RTR
r -t 1.132472167 -s 10 -d -1 -p AODV -e 48 -c 2 -a 0 -i 0 -k RTR
r -t 1.132472167 -s 26 -d -1 -p AODV -e 48 -c 2 -a 0 -i 0 -k RTR
r -t 1.132472225 -s 11 -d -1 -p AODV -e 48 -c 2 -a 0 -i 0 -k RTR
r -t 1.132472225 -s 27 -d -1 -p AODV -e 48 -c 2 -a 0 -i 0 -k RTR
r -t 1.132472227 -s 9 -d -1 -p AODV -e 48 -c 2 -a 0 -i 0 -k RTR
r -t 1.132472227 -s 25 -d -1 -p AODV -e 48 -c 2 -a 0 -i 0 -k RTR
r -t 1.132472250 -s 16 -d -1 -p AODV -e 48 -c 2 -a 0 -i 0 -k RTR
r -t 1.132472250 -s 20 -d -1 -p AODV -e 48 -c 2 -a 0 -i 0 -k RTR
r -t 1.132472367 -s 12 -d -1 -p AODV -e 48 -c 2 -a 0 -i 0 -k RTR
r -t 1.132472367 -s 8 -d -1 -p AODV -e 48 -c 2 -a 0 -i 0 -k RTR
r -t 1.132472367 -s 24 -d -1 -p AODV -e 48 -c 2 -a 0 -i 0 -k RTR
r -t 1.132472367 -s 28 -d -1 -p AODV -e 48 -c 2 -a 0 -i 0 -k RTR
r -t 1.132472457 -s 21 -d -1 -p AODV -e 48 -c 2 -a 0 -i 0 -k RTR
r -t 1.132472500 -s 34 -d -1 -p AODV -e 48 -c 2 -a 0 -i 0 -k RTR
r -t 1.132472531 -s 3 -d -1 -p AODV -e 48 -c 2 -a 0 -i 0 -k RTR
r -t 1.132472531 -s 35 -d -1 -p AODV -e 48 -c 2 -a 0 -i 0 -k RTR
r -t 1.132472532 -s 1 -d -1 -p AODV -e 48 -c 2 -a 0 -i 0 -k RTR
r -t 1.132472532 -s 33 -d -1 -p AODV -e 48 -c 2 -a 0 -i 0 -k RTR
r -t 1.132472540 -s 13 -d -1 -p AODV -e 48 -c 2 -a 0 -i 0 -k RTR
r -t 1.132472540 -s 29 -d -1 -p AODV -e 48 -c 2 -a 0 -i 0 -k RTR
r -t 1.132472619 -s 4 -d -1 -p AODV -e 48 -c 2 -a 0 -i 0 -k RTR
r -t 1.132472619 -s 0 -d -1 -p AODV -e 48 -c 2 -a 0 -i 0 -k RTR
r -t 1.132472619 -s 32 -d -1 -p AODV -e 48 -c 2 -a 0 -i 0 -k RTR
r -t 1.132472619 -s 36 -d -1 -p AODV -e 48 -c 2 -a 0 -i 0 -k RTR
r -t 1.132472667 -s 22 -d -1 -p AODV -e 48 -c 2 -a 0 -i 0 -k RTR
+ -t 1.132840756 -s 27 -d -1 -p AODV -e 48 -c 2 -a 0 -i 0 -k RTR 
- -t 1.132840756 -s 27 -d -1 -p AODV -e 48 -c 2 -a 0 -i 0 -k RTR
h -t 1.132840756 -s 27 -d -1 -p AODV -e 48 -c 2 -a 0 -i 0 -k RTR
+ -t 1.133013425 -s 24 -d -1 -p AODV -e 48 -c 2 -a 0 -i 0 -k RTR 
- -t 1.133013425 -s 24 -d -1 -p AODV -e 48 -c 2 -a 0 -i 0 -k RTR
h -t 1.133013425 -s 24 -d -1 -p AODV -e 48 -c 2 -a 0 -i 0 -k RTR
+ -t 1.133734773 -s 26 -d -1 -p AODV -e 48 -c 2 -a 0 -i 0 -k RTR 
- -t 1.133734773 -s 26 -d -1 -p AODV -e 48 -c 2 -a 0 -i 0 -k RTR
h -t 1.133734773 -s 26 -d -1 -p AODV -e 48 -c 2 -a 0 -i 0 -k RTR
+ -t 1.134790660 -s 17 -d -1 -p AODV -e 48 -c 2 -a 0 -i 0 -k RTR 
- -t 1.134790660 -s 17 -d -1 -p AODV -e 48 -c 2 -a 0 -i 0 -k RTR
h -t 1.134790660 -s 17 -d -1 -p AODV -e 48 -c 2 -a 0 -i 0 -k RTR
r -t 1.134839646 -s 24 -d -1 -p AODV -e 48 -c 2 -a 0 -i 0 -k RTR
r -t 1.134839649 -s 26 -d -1 -p AODV -e 48 -c 2 -a 0 -i 0 -k RTR
r -t 1.134839773 -s 17 -d -1 -p AODV -e 48 -c 2 -a 0 -i 0 -k RTR
r -t 1.134839773 -s 33 -d -1 -p AODV -e 48 -c 2 -a 0 -i 0 -k RTR
r -t 1.134839831 -s 16 -d -1 -p AODV -e 48 -c 2 -a 0 -i 0 -k RTR
r -t 1.134839831 -s 32 -d -1 -p AODV -e 48 -c 2 -a 0 -i 0 -k RTR
r -t 1.134839833 -s 18 -d -1 -p AODV -e 48 -c 2 -a 0 -i 0 -k RTR
r -t 1.134906365 -s 37 -d -1 -p AODV -e 48 -c 2 -a 0 -i 0 -k RTR
r -t 1.134906368 -s 35 -d -1 -p AODV -e 48 -c 2 -a 0 -i 0 -k RTR
r -t 1.134906492 -s 28 -d -1 -p AODV -e 48 -c 2 -a 0 -i 0 -k RTR
r -t 1.134906575 -s 38 -d -1 -p AODV -e 48 -c 2 -a 0 -i 0 -k RTR
r -t 1.135017900 -s 14 -d -1 -p AODV -e 48 -c 2 -a 0 -i 0 -k RTR
r -t 1.135018027 -s 7 -d -1 -p AODV -e 48 -c 2 -a 0 -i 0 -k RTR
r -t 1.135018027 -s 23 -d -1 -p AODV -e 48 -c 2 -a 0 -i 0 -k RTR
r -t 1.135018086 -s 6 -d -1 -p AODV -e 48 -c 2 -a 0 -i 0 -k RTR
r -t 1.135018086 -s 22 -d -1 -p AODV -e 48 -c 2 -a 0 -i 0 -k RTR
r -t 1.135018110 -s 13 -d -1 -p AODV -e 48 -c 2 -a 0 -i 0 -k RTR
r -t 1.135018227 -s 5 -d -1 -p AODV -e 48 -c 2 -a 0 -i 0 -k RTR
+ -t 1.135049786 -s 16 -d -1 -p AODV -e 48 -c 2 -a 0 -i 0 -k RTR 
- -t 1.135049786 -s 16 -d -1 -p AODV -e 48 -c 2 -a 0 -i 0 -k RTR
h -t 1.135049786 -s 16 -d -1 -p AODV -e 48 -c 2 -a 0 -i 0 -k RTR
+ -t 1.136075386 -s 34 -d -1 -p AODV -e 48 -c 2 -a 0 -i 0 -k RTR 
- -t 1.136075386 -s 34 -d -1 -p AODV -e 48 -c 2 -a 0 -i 0 -k RTR
h -t 1.136075386 -s 34 -d -1 -p AODV -e 48 -c 2 -a 0 -i 0 -k RTR
+ -t 1.136194806 -s 24 -d -1 -p AODV -e 48 -c 2 -a 0 -i 0 -k RTR 
- -t 1.136194806 -s 24 -d -1 -p AODV -e 48 -c 2 -a 0 -i 0 -k RTR
h -t 1.136194806 -s 24 -d -1 -p AODV -e 48 -c 2 -a 0 -i 0 -k RTR
+ -t 1.136205460 -s 33 -d -1 -p AODV -e 48 -c 2 -a 0 -i 0 -k RTR 
- -t 1.136205460 -s 33 -d -1 -p AODV -e 48 -c 2 -a 0 -i 0 -k RTR
h -t 1.136205460 -s 33 -d -1 -p AODV -e 48 -c 2 -a 0 -i 0 -k RTR
+ -t 1.136849553 -s 32 -d -1 -p AODV -e 48 -c 2 -a 0 -i 0 -k RTR 
- -t 1.136849553 -s 32 -d -1 -p AODV -e 48 -c 2 -a 0 -i 0 -k RTR
h -t 1.136849553 -s 32 -d -1 -p AODV -e 48 -c 2 -a 0 -i 0 -k RTR
r -t 1.137359571 -s 2 -d -1 -p AODV -e 48 -c 2 -a 0 -i 0 -k RTR
r -t 1.137359574 -s 4 -d -1 -p AODV -e 48 -c 2 -a 0 -i 0 -k RTR
r -t 1.137359698 -s 11 -d -1 -p AODV -e 48 -c 2 -a 0 -i 0 -k RTR
r -t 1.137359757 -s 10 -d -1 -p AODV -e 48 -c 2 -a 0 -i 0 -k RTR
r -t 1.137359758 -s 12 -d -1 -p AODV -e 48 -c 2 -a 0 -i 0 -k RTR
r -t 1.137359781 -s 1 -d -1 -p AODV -e 48 -c 2 -a 0 -i 0 -k RTR
r -t 1.137359781 -s 5 -d -1 -p AODV -e 48 -c 2 -a 0 -i 0 -k RTR
r -t 1.137359898 -s 9 -d -1 -p AODV -e 48 -c 2 -a 0 -i 0 -k RTR
r -t 1.137359898 -s 13 -d -1 -p AODV -e 48 -c 2 -a 0 -i 0 -k RTR
r -t 1.137359988 -s 0 -d -1 -p AODV -e 48 -c 2 -a 0 -i 0 -k RTR
r -t 1.137359991 -s 6 -d -1 -p AODV -e 48 -c 2 -a 0 -i 0 -k RTR
r -t 1.137360031 -s 19 -d -1 -p AODV -e 48 -c 2 -a 0 -i 0 -k RTR
r -t 1.137360062 -s 18 -d -1 -p AODV -e 48 -c 2 -a 0 -i 0 -k RTR
r -t 1.137360063 -s 20 -d -1 -p AODV -e 48 -c 2 -a 0 -i 0 -k RTR
r -t 1.137360071 -s 8 -d -1 -p AODV -e 48 -c 2 -a 0 -i 0 -k RTR
r -t 1.137360074 -s 14 -d -1 -p AODV -e 48 -c 2 -a 0 -i 0 -k RTR
r -t 1.137360151 -s 17 -d -1 -p AODV -e 48 -c 2 -a 0 -i 0 -k RTR
r -t 1.137360151 -s 21 -d -1 -p AODV -e 48 -c 2 -a 0 -i 0 -k RTR
r -t 1.137360198 -s 7 -d -1 -p AODV -e 48 -c 2 -a 0 -i 0 -k RTR
+ -t 1.138796071 -s 0 -d -1 -p AODV -e 48 -c 2 -a 0 -i 0 -k RTR 
- -t 1.138796071 -s 0 -d -1 -p AODV -e 48 -c 2 -a 0 -i 0 -k RTR
h -t 1.138796071 -s 0 -d -1 -p AODV -e 48 -c 2 -a 0 -i 0 -k RTR
+ -t 1.139000128 -s 37 -d -1 -p AODV -e 48 -c 2 -a 0 -i 0 -k RTR 
- -t 1.139000128 -s 37 -d -1 -p AODV -e 48 -c 2 -a 0 -i 0 -k RTR
h -t 1.139000128 -s 37 -d -1 -p AODV -e 48 -c 2 -a 0 -i 0 -k RTR
r -t 1.139611609 -s 6 -d -1 -p AODV -e 48 -c 2 -a 0 -i 0 -k RTR
r -t 1.139611736 -s 15 -d -1 -p AODV -e 48 -c 2 -a 0 -i 0 -k RTR
r -t 1.139611794 -s 14 -d -1 -p AODV -e 48 -c 2 -a 0 -i 0 -k RTR
r -t 1.139611819 -s 5 -d -1 -p AODV -e 48 -c 2 -a 0 -i 0 -k RTR
r -t 1.139707560 -s 29 -d -1 -p AODV -e 48 -c 2 -a 0 -i 0 -k RTR
+ -t 1.141973648 -s 28 -d -1 -p AODV -e 48 -c 2 -a 0 -i 0 -k RTR 
- -t 1.141973648 -s 28 -d -1 -p AODV -e 48 -c 2 -a 0 -i 0 -k RTR
h -t 1.141973648 -s 28 -d -1 -p AODV -e 48 -c 2 -a 0 -i 0 -k RTR
r -t 1.142045593 -s 35 -d -1 -p AODV -e 48 -c 2 -a 0 -i 0 -k RTR
r -t 1.142045596 -s 33 -d -1 -p AODV -e 48 -c 2 -a 0 -i 0 -k RTR
r -t 1.142045720 -s 26 -d -1 -p AODV -e 48 -c 2 -a 0 -i 0 -k RTR
r -t 1.142045779 -s 27 -d -1 -p AODV -e 48 -c 2 -a 0 -i 0 -k RTR
r -t 1.142045780 -s 25 -d -1 -p AODV -e 48 -c 2 -a 0 -i 0 -k RTR
r -t 1.142045803 -s 32 -d -1 -p AODV -e 48 -c 2 -a 0 -i 0 -k RTR
r -t 1.142045803 -s 36 -d -1 -p AODV -e 48 -c 2 -a 0 -i 0 -k RTR
r -t 1.142045920 -s 28 -d -1 -p AODV -e 48 -c 2 -a 0 -i 0 -k RTR
r -t 1.142045920 -s 24 -d -1 -p AODV -e 48 -c 2 -a 0 -i 0 -k RTR
r -t 1.142046010 -s 37 -d -1 -p AODV -e 48 -c 2 -a 0 -i 0 -k RTR
r -t 1.142046053 -s 18 -d -1 -p AODV -e 48 -c 2 -a 0 -i 0 -k RTR
r -t 1.142046084 -s 19 -d -1 -p AODV -e 48 -c 2 -a 0 -i 0 -k RTR
r -t 1.142046085 -s 17 -d -1 -p AODV -e 48 -c 2 -a 0 -i 0 -k RTR
r -t 1.142046093 -s 29 -d -1 -p AODV -e 48 -c 2 -a 0 -i 0 -k RTR
r -t 1.142046172 -s 20 -d -1 -p AODV -e 48 -c 2 -a 0 -i 0 -k RTR
r -t 1.142046172 -s 16 -d -1 -p AODV -e 48 -c 2 -a 0 -i 0 -k RTR
r -t 1.142046220 -s 38 -d -1 -p AODV -e 48 -c 2 -a 0 -i 0 -k RTR
+ -t 1.142393271 -s 38 -d -1 -p AODV -e 48 -c 2 -a 0 -i 0 -k RTR 
- -t 1.142393271 -s 38 -d -1 -p AODV -e 48 -c 2 -a 0 -i 0 -k RTR
h -t 1.142393271 -s 38 -d -1 -p AODV -e 48 -c 2 -a 0 -i 0 -k RTR
+ -t 1.143291419 -s 29 -d -1 -p AODV -e 48 -c 2 -a 0 -i 0 -k RTR 
- -t 1.143291419 -s 29 -d -1 -p AODV -e 48 -c 2 -a 0 -i 0 -k RTR
h -t 1.143291419 -s 29 -d -1 -p AODV -e 48 -c 2 -a 0 -i 0 -k RTR
r -t 1.144472904 -s 0 -d -1 -p AODV -e 48 -c 2 -a 0 -i 0 -k RTR
r -t 1.144472907 -s 2 -d -1 -p AODV -e 48 -c 2 -a 0 -i 0 -k RTR
r -t 1.144473031 -s 9 -d -1 -p AODV -e 48 -c 2 -a 0 -i 0 -k RTR
r -t 1.144473090 -s 8 -d -1 -p AODV -e 48 -c 2 -a 0 -i 0 -k RTR
r -t 1.144473091 -s 10 -d -1 -p AODV -e 48 -c 2 -a 0 -i 0 -k RTR
r -t 1.144473114 -s 3 -d -1 -p AODV -e 48 -c 2 -a 0 -i 0 -k RTR
r -t 1.144473231 -s 11 -d -1 -p AODV -e 48 -c 2 -a 0 -i 0 -k RTR
r -t 1.144473324 -s 4 -d -1 -p AODV -e 48 -c 2 -a 0 -i 0 -k RTR
r -t 1.144473364 -s 17 -d -1 -p AODV -e 48 -c 2 -a 0 -i 0 -k RTR
r -t 1.144473395 -s 16 -d -1 -p AODV -e 48 -c 2 -a 0 -i 0 -k RTR
r -t 1.144473396 -s 18 -d -1 -p AODV -e 48 -c 2 -a 0 -i 0 -k RTR
r -t 1.144473407 -s 12 -d -1 -p AODV -e 48 -c 2 -a 0 -i 0 -k RTR