s 1.092181956 _35_ AGT  --- 0 tcp 40 [0 0 0 0] ------- [35:0 13:0 32 0] [0 0] 0 0
r 1.092181956 _35_ RTR  --- 0 tcp 40 [0 0 0 0] ------- [35:0 13:0 32 0] [0 0] 0 0
s 1.092181956 _35_ RTR  --- 0 AODV 48 [0 0 0 0] ------- [35:255 -1:255 30 0] [0x2 1 1 [13 0] [35 4]] (REQUEST)
r 1.097384163 _34_ RTR  --- 0 AODV 48 [0 ffffffff 23 800] ------- [35:255 -1:255 30 0] [0x2 1 1 [13 0] [35 4]] (REQUEST)
r 1.097384166 _36_ RTR  --- 0 AODV 48 [0 ffffffff 23 800] ------- [35:255 -1:255 30 0] [0x2 1 1 [13 0] [35 4]] (REQUEST)
r 1.097384289 _27_ RTR  --- 0 AODV 48 [0 ffffffff 23 800] ------- [35:255 -1:255 30 0] [0x2 1 1 [13 0] [35 4]] (REQUEST)
r 1.097384348 _26_ RTR  --- 0 AODV 48 [0 ffffffff 23 800] ------- [35:255 -1:255 30 0] [0x2 1 1 [13 0] [35 4]] (REQUEST)
r 1.097384350 _28_ RTR  --- 0 AODV 48 [0 ffffffff 23 800] ------- [35:255 -1:255 30 0] [0x2 1 1 [13 0] [35 4]] (REQUEST)
r 1.097384373 _33_ RTR  --- 0 AODV 48 [0 ffffffff 23 800] ------- [35:255 -1:255 30 0] [0x2 1 1 [13 0] [35 4]] (REQUEST)
r 1.097384373 _37_ RTR  --- 0 AODV 48 [0 ffffffff 23 800] ------- [35:255 -1:255 30 0] [0x2 1 1 [13 0] [35 4]] (REQUEST)
r 1.097384490 _29_ RTR  --- 0 AODV 48 [0 ffffffff 23 800] ------- [35:255 -1:255 30 0] [0x2 1 1 [13 0] [35 4]] (REQUEST)
r 1.097384490 _25_ RTR  --- 0 AODV 48 [0 ffffffff 23 800] ------- [35:255 -1:255 30 0] [0x2 1 1 [13 0] [35 4]] (REQUEST)
r 1.097384579 _32_ RTR  --- 0 AODV 48 [0 ffffffff 23 800] ------- [35:255 -1:255 30 0] [0x2 1 1 [13 0] [35 4]] (REQUEST)
r 1.097384583 _38_ RTR  --- 0 AODV 48 [0 ffffffff 23 800] ------- [35:255 -1:255 30 0] [0x2 1 1 [13 0] [35 4]] (REQUEST)
r 1.097384623 _19_ RTR  --- 0 AODV 48 [0 ffffffff 23 800] ------- [35:255 -1:255 30 0] [0x2 1 1 [13 0] [35 4]] (REQUEST)
r 1.097384654 _18_ RTR  --- 0 AODV 48 [0 ffffffff 23 800] ------- [35:255 -1:255 30 0] [0x2 1 1 [13 0] [35 4]] (REQUEST)
r 1.097384655 _20_ RTR  --- 0 AODV 48 [0 ffffffff 23 800] ------- [35:255 -1:255 30 0] [0x2 1 1 [13 0] [35 4]] (REQUEST)
r 1.097384663 _24_ RTR  --- 0 AODV 48 [0 ffffffff 23 800] ------- [35:255 -1:255 30 0] [0x2 1 1 [13 0] [35 4]] (REQUEST)
r 1.097384666 _30_ RTR  --- 0 AODV 48 [0 ffffffff 23 800] ------- [35:255 -1:255 30 0] [0x2 1 1 [13 0] [35 4]] (REQUEST)
r 1.097384742 _21_ RTR  --- 0 AODV 48 [0 ffffffff 23 800] ------- [35:255 -1:255 30 0] [0x2 1 1 [13 0] [35 4]] (REQUEST)
r 1.097384742 _17_ RTR  --- 0 AODV 48 [0 ffffffff 23 800] ------- [35:255 -1:255 30 0] [0x2 1 1 [13 0] [35 4]] (REQUEST)
r 1.097384789 _39_ RTR  --- 0 AODV 48 [0 ffffffff 23 800] ------- [35:255 -1:255 30 0] [0x2 1 1 [13 0] [35 4]] (REQUEST)
s 1.097544551 _32_ RTR  --- 0 AODV 48 [0 ffffffff 23 800] ------- [32:255 -1:255 29 0] [0x2 2 1 [13 0] [35 4]] (REQUEST)
s 1.097703704 _27_ RTR  --- 0 AODV 48 [0 ffffffff 23 800] ------- [27:255 -1:255 29 0] [0x2 2 1 [13 0] [35 4]] (REQUEST)
s 1.098576426 _20_ RTR  --- 0 AODV 48 [0 ffffffff 23 800] ------- [20:255 -1:255 29 0] [0x2 2 1 [13 0] [35 4]] (REQUEST)
s 1.099096356 _36_ RTR  --- 0 AODV 48 [0 ffffffff 23 800] ------- [36:255 -1:255 29 0] [0x2 2 1 [13 0] [35 4]] (REQUEST)
s 1.099460641 _25_ RTR  --- 0 AODV 48 [0 ffffffff 23 800] ------- [25:255 -1:255 29 0] [0x2 2 1 [13 0] [35 4]] (REQUEST)
s 1.099526186 _30_ RTR  --- 0 AODV 48 [0 ffffffff 23 800] ------- [30:255 -1:255 29 0] [0x2 2 1 [13 0] [35 4]] (REQUEST)
r 1.100665910 _26_ RTR  --- 0 AODV 48 [0 ffffffff 1b 800] ------- [27:255 -1:255 29 0] [0x2 2 1 [13 0] [35 4]] (REQUEST)
r 1.100665914 _28_ RTR  --- 0 AODV 48 [0 ffffffff 1b 800] ------- [27:255 -1:255 29 0] [0x2 2 1 [13 0] [35 4]] (REQUEST)
r 1.100666037 _19_ RTR  --- 0 AODV 48 [0 ffffffff 1b 800] ------- [27:255 -1:255 29 0] [0x2 2 1 [13 0] [35 4]] (REQUEST)
r 1.100666037 _35_ RTR  --- 0 AODV 48 [0 ffffffff 1b 800] ------- [27:255 -1:255 29 0] [0x2 2 1 [13 0] [35 4]] (REQUEST)
r 1.100666096 _18_ RTR  --- 0 AODV 48 [0 ffffffff 1b 800] ------- [27:255 -1:255 29 0] [0x2 2 1 [13 0] [35 4]] (REQUEST)
r 1.100666096 _34_ RTR  --- 0 AODV 48 [0 ffffffff 1b 800] ------- [27:255 -1:255 29 0] [0x2 2 1 [13 0] [35 4]] (REQUEST)
r 1.100666098 _20_ RTR  --- 0 AODV 48 [0 ffffffff 1b 800] ------- [27:255 -1:255 29 0] [0x2 2 1 [13 0] [35 4]] (REQUEST)
r 1.100666098 _36_ RTR  --- 0 AODV 48 [0 ffffffff 1b 800] ------- [27:255 -1:255 29 0] [0x2 2 1 [13 0] [35 4]] (REQUEST)
r 1.100666120 _25_ RTR  --- 0 AODV 48 [0 ffffffff 1b 800] ------- [27:255 -1:255 29 0] [0x2 2 1 [13 0] [35 4]] (REQUEST)
r 1.100666120 _29_ RTR  --- 0 AODV 48 [0 ffffffff 1b 800] ------- [27:255 -1:255 29 0] [0x2 2 1 [13 0] [35 4]] (REQUEST)
r 1.100666237 _21_ RTR  --- 0 AODV 48 [0 ffffffff 1b 800] ------- [27:255 -1:255 29 0] [0x2 2 1 [13 0] [35 4]] (REQUEST)
r 1.100666237 _17_ RTR  --- 0 AODV 48 [0 ffffffff 1b 800] ------- [27:255 -1:255 29 0] [0x2 2 1 [13 0] [35 4]] (REQUEST)
r 1.100666237 _33_ RTR  --- 0 AODV 48 [0 ffffffff 1b 800] ------- [27:255 -1:255 29 0] [0x2 2 1 [13 0] [35 4]] (REQUEST)
r 1.100666237 _37_ RTR  --- 0 AODV 48 [0 ffffffff 1b 800] ------- [27:255 -1:255 29 0] [0x2 2 1 [13 0] [35 4]] (REQUEST)
r 1.100666327 _24_ RTR  --- 0 AODV 48 [0 ffffffff 1b 800] ------- [27:255 -1:255 29 0] [0x2 2 1 [13 0] [35 4]] (REQUEST)
r 1.100666330 _30_ RTR  --- 0 AODV 48 [0 ffffffff 1b 800] ------- [27:255 -1:255 29 0] [0x2 2 1 [13 0] [35 4]] (REQUEST)
r 1.100666370 _11_ RTR  --- 0 AODV 48 [0 ffffffff 1b 800] ------- [27:255 -1:255 29 0] [0x2 2 1 [13 0] [35 4]] (REQUEST)
r 1.100666402 _10_ RTR  --- 0 AODV 48 [0 ffffffff 1b 800] ------- [27:255 -1:255 29 0] [0x2 2 1 [13 0] [35 4]] (REQUEST)
r 1.100666403 _12_ RTR  --- 0 AODV 48 [0 ffffffff 1b 800] ------- [27:255 -1:255 29 0] [0x2 2 1 [13 0] [35 4]] (REQUEST)
r 1.100666411 _16_ RTR  --- 0 AODV 48 [0 ffffffff 1b 800] ------- [27:255 -1:255 29 0] [0x2 2 1 [13 0] [35 4]] (REQUEST)
r 1.100666411 _32_ RTR  --- 0 AODV 48 [0 ffffffff 1b 800] ------- [27:255 -1:255 29 0] [0x2 2 1 [13 0] [35 4]] (REQUEST)
r 1.100666413 _22_ RTR  --- 0 AODV 48 [0 ffffffff 1b 800] ------- [27:255 -1:255 29 0] [0x2 2 1 [13 0] [35 4]] (REQUEST)
r 1.100666413 _38_ RTR  --- 0 AODV 48 [0 ffffffff 1b 800] ------- [27:255 -1:255 29 0] [0x2 2 1 [13 0] [35 4]] (REQUEST)
r 1.100666490 _13_ RTR  --- 0 AODV 48 [0 ffffffff 1b 800] ------- [27:255 -1:255 29 0] [0x2 2 1 [13 0] [35 4]] (REQUEST)
r 1.100666490 _9_ RTR  --- 0 AODV 48 [0 ffffffff 1b 800] ------- [27:255 -1:255 29 0] [0x2 2 1 [13 0] [35 4]] (REQUEST)
s 1.100666490 _13_ RTR  --- 0 AODV 44 [0 0 0 0] ------- [13:255 35:255 30 27] [0x4 1 [13 4] 10.000000] (REPLY)
r 1.100666537 _31_ RTR  --- 0 AODV 48 [0 ffffffff 1b 800] ------- [27:255 -1:255 29 0] [0x2 2 1 [13 0] [35 4]] (REQUEST)
s 1.100696774 _18_ RTR  --- 0 AODV 48 [0 ffffffff 23 800] ------- [18:255 -1:255 29 0] [0x2 2 1 [13 0] [35 4]] (REQUEST)
s 1.101061438 _12_ RTR  --- 0 AODV 48 [0 ffffffff 1b 800] ------- [12:255 -1:255 28 0] [0x2 3 1 [13 0] [35 4]] (REQUEST)
s 1.101459580 _39_ RTR  --- 0 AODV 48 [0 ffffffff 23 800] ------- [39:255 -1:255 29 0] [0x2 2 1 [13 0] [35 4]] (REQUEST)
s 1.101614066 _17_ RTR  --- 0 AODV 48 [0 ffffffff 23 800] ------- [17:255 -1:255 29 0] [0x2 2 1 [13 0] [35 4]] (REQUEST)
s 1.101688791 _21_ RTR  --- 0 AODV 48 [0 ffffffff 23 800] ------- [21:255 -1:255 29 0] [0x2 2 1 [13 0] [35 4]] (REQUEST)
s 1.101756844 _19_ RTR  --- 0 AODV 48 [0 ffffffff 23 800] ------- [19:255 -1:255 29 0] [0x2 2 1 [13 0] [35 4]] (REQUEST)
s 1.101783727 _38_ RTR  --- 0 AODV 48 [0 ffffffff 23 800] ------- [38:255 -1:255 29 0] [0x2 2 1 [13 0] [35 4]] (REQUEST)
s 1.101897104 _29_ RTR  --- 0 AODV 48 [0 ffffffff 23 800] ------- [29:255 -1:255 29 0] [0x2 2 1 [13 0] [35 4]] (REQUEST)
s 1.102433219 _11_ RTR  --- 0 AODV 48 [0 ffffffff 1b 800] ------- [11:255 -1:255 28 0] [0x2 3 1 [13 0] [35 4]] (REQUEST)
s 1.102591842 _37_ RTR  --- 0 AODV 48 [0 ffffffff 23 800] ------- [37:255 -1:255 29 0] [0x2 2 1 [13 0] [35 4]] (REQUEST)
s 1.102934797 _9_ RTR  --- 0 AODV 48 [0 ffffffff 1b 800] ------- [9:255 -1:255 28 0] [0x2 3 1 [13 0] [35 4]] (REQUEST)
r 1.103128393 _31_ RTR  --- 0 AODV 48 [0 ffffffff 1e 800] ------- [30:255 -1:255 29 0] [0x2 2 1 [13 0] [35 4]] (REQUEST)
r 1.103128519 _38_ RTR  --- 0 AODV 48 [0 ffffffff 1e 800] ------- [30:255 -1:255 29 0] [0x2 2 1 [13 0] [35 4]] (REQUEST)
r 1.103128578 _39_ RTR  --- 0 AODV 48 [0 ffffffff 1e 800] ------- [30:255 -1:255 29 0] [0x2 2 1 [13 0] [35 4]] (REQUEST)
r 1.103266636 _19_ RTR  --- 0 AODV 48 [0 ffffffff 14 800] ------- [20:255 -1:255 29 0] [0x2 2 1 [13 0] [35 4]] (REQUEST)
r 1.103266760 _12_ RTR  --- 0 AODV 48 [0 ffffffff 14 800] ------- [20:255 -1:255 29 0] [0x2 2 1 [13 0] [35 4]] (REQUEST)
r 1.103266818 _13_ RTR  --- 0 AODV 48 [0 ffffffff 14 800] ------- [20:255 -1:255 29 0] [0x2 2 1 [13 0] [35 4]] (REQUEST)
r 1.103266820 _11_ RTR  --- 0 AODV 48 [0 ffffffff 14 800] ------- [20:255 -1:255 29 0] [0x2 2 1 [13 0] [35 4]] (REQUEST)
r 1.103266843 _18_ RTR  --- 0 AODV 48 [0 ffffffff 14 800] ------- [20:255 -1:255 29 0] [0x2 2 1 [13 0] [35 4]] (REQUEST)
r 1.103266960 _10_ RTR  --- 0 AODV 48 [0 ffffffff 14 800] ------- [20:255 -1:255 29 0] [0x2 2 1 [13 0] [35 4]] (REQUEST)
s 1.103537916 _28_ RTR  --- 0 AODV 48 [0 ffffffff 23 800] ------- [28:255 -1:255 29 0] [0x2 2 1 [13 0] [35 4]] (REQUEST)
s 1.104936703 _26_ RTR  --- 0 AODV 48 [0 ffffffff 23 800] ------- [26:255 -1:255 29 0] [0x2 2 1 [13 0] [35 4]] (REQUEST)
s 1.105280656 _33_ RTR  --- 0 AODV 48 [0 ffffffff 23 800] ------- [33:255 -1:255 29 0] [0x2 2 1 [13 0] [35 4]] (REQUEST)
s 1.105442481 _34_ RTR  --- 0 AODV 48 [0 ffffffff 23 800] ------- [34:255 -1:255 29 0] [0x2 2 1 [13 0] [35 4]] (REQUEST)
r 1.105610997 _20_ RTR  --- 0 AODV 48 [0 ffffffff 15 800] ------- [21:255 -1:255 29 0] [0x2 2 1 [13 0] [35 4]] (REQUEST)
r 1.105611001 _22_ RTR  --- 0 AODV 48 [0 ffffffff 15 800] ------- [21:255 -1:255 29 0] [0x2 2 1 [13 0] [35 4]] (REQUEST)
r 1.105611124 _13_ RTR  --- 0 AODV 48 [0 ffffffff 15 800] ------- [21:255 -1:255 29 0] [0x2 2 1 [13 0] [35 4]] (REQUEST)
r 1.105611124 _29_ RTR  --- 0 AODV 48 [0 ffffffff 15 800] ------- [21:255 -1:255 29 0] [0x2 2 1 [13 0] [35 4]] (REQUEST)
r 1.105611183 _12_ RTR  --- 0 AODV 48 [0 ffffffff 15 800] ------- [21:255 -1:255 29 0] [0x2 2 1 [13 0] [35 4]] (REQUEST)
r 1.105611183 _28_ RTR  --- 0 AODV 48 [0 ffffffff 15 800] ------- [21:255 -1:255 29 0] [0x2 2 1 [13 0] [35 4]] (REQUEST)
r 1.105611185 _14_ RTR  --- 0 AODV 48 [0 ffffffff 15 800] ------- [21:255 -1:255 29 0] [0x2 2 1 [13 0] [35 4]] (REQUEST)
r 1.105611185 _30_ RTR  --- 0 AODV 48 [0 ffffffff 15 800] ------- [21:255 -1:255 29 0] [0x2 2 1 [13 0] [35 4]] (REQUEST)
r 1.105611207 _19_ RTR  --- 0 AODV 48 [0 ffffffff 15 800] ------- [21:255 -1:255 29 0] [0x2 2 1 [13 0] [35 4]] (REQUEST)
r 1.105611207 _23_ RTR  --- 0 AODV 48 [0 ffffffff 15 800] ------- [21:255 -1:255 29 0] [0x2 2 1 [13 0] [35 4]] (REQUEST)
r 1.105611324 _15_ RTR  --- 0 AODV 48 [0 ffffffff 15 800] ------- [21:255 -1:255 29 0] [0x2 2 1 [13 0] [35 4]] (REQUEST)
r 1.105611324 _11_ RTR  --- 0 AODV 48 [0 ffffffff 15 800] ------- [21:255 -1:255 29 0] [0x2 2 1 [13 0] [35 4]] (REQUEST)
r 1.105611324 _27_ RTR  --- 0 AODV 48 [0 ffffffff 15 800] ------- [21:255 -1:255 29 0] [0x2 2 1 [13 0] [35 4]] (REQUEST)
r 1.105611324 _31_ RTR  --- 0 AODV 48 [0 ffffffff 15 800] ------- [21:255 -1:255 29 0] [0x2 2 1 [13 0] [35 4]] (REQUEST)
r 1.105611414 _18_ RTR  --- 0 AODV 48 [0 ffffffff 15 800] ------- [21:255 -1:255 29 0] [0x2 2 1 [13 0] [35 4]] (REQUEST)
r 1.105611457 _5_ RTR  --- 0 AODV 48 [0 ffffffff 15 800] ------- [21:255 -1:255 29 0] [0x2 2 1 [13 0] [35 4]] (REQUEST)
r 1.105611457 _37_ RTR  --- 0 AODV 48 [0 ffffffff 15 800] ------- [21:255 -1:255 29 0] [0x2 2 1 [13 0] [35 4]] (REQUEST)
r 1.105611489 _4_ RTR  --- 0 AODV 48 [0 ffffffff 15 800] ------- [21:255 -1:255 29 0] [0x2 2 1 [13 0] [35 4]] (REQUEST)
r 1.105611489 _36_ RTR  --- 0 AODV 48 [0 ffffffff 15 800] ------- [21:255 -1:255 29 0] [0x2 2 1 [13 0] [35 4]] (REQUEST)
r 1.105611490 _6_ RTR  --- 0 AODV 48 [0 ffffffff 15 800] ------- [21:255 -1:255 29 0] [0x2 2 1 [13 0] [35 4]] (REQUEST)
r 1.105611490 _38_ RTR  --- 0 AODV 48 [0 ffffffff 15 800] ------- [21:255 -1:255 29 0] [0x2 2 1 [13 0] [35 4]] (REQUEST)
r 1.105611498 _10_ RTR  --- 0 AODV 48 [0 ffffffff 15 800] ------- [21:255 -1:255 29 0] [0x2 2 1 [13 0] [35 4]] (REQUEST)
r 1.105611498 _26_ RTR  --- 0 AODV 48 [0 ffffffff 15 800] ------- [21:255 -1:255 29 0] [0x2 2 1 [13 0] [35 4]] (REQUEST)
r 1.105611577 _7_ RTR  --- 0 AODV 48 [0 ffffffff 15 800] ------- [21:255 -1:255 29 0] [0x2 2 1 [13 0] [35 4]] (REQUEST)
r 1.105611577 _3_ RTR  --- 0 AODV 48 [0 ffffffff 15 800] ------- [21:255 -1:255 29 0] [0x2 2 1 [13 0] [35 4]] (REQUEST)
r 1.105611577 _35_ RTR  --- 0 AODV 48 [0 ffffffff 15 800] ------- [21:255 -1:255 29 0] [0x2 2 1 [13 0] [35 4]] (REQUEST)
r 1.105611577 _39_ RTR  --- 0 AODV 48 [0 ffffffff 15 800] ------- [21:255 -1:255 29 0] [0x2 2 1 [13 0] [35 4]] (REQUEST)
r 1.105611624 _17_ RTR  --- 0 AODV 48 [0 ffffffff 15 800] ------- [21:255 -1:255 29 0] [0x2 2 1 [13 0] [35 4]] (REQUEST)
s 1.106026937 _23_ RTR  --- 0 AODV 48 [0 ffffffff 15 800] ------- [23:255 -1:255 28 0] [0x2 3 1 [13 0] [35 4]] (REQUEST)
s 1.106150649 _4_ RTR  --- 0 AODV 48 [0 ffffffff 15 800] ------- [4:255 -1:255 28 0] [0x2 3 1 [13 0] [35 4]] (REQUEST)
s 1.106165043 _3_ RTR  --- 0 AODV 48 [0 ffffffff 15 800] ------- [3:255 -1:255 28 0] [0x2 3 1 [13 0] [35 4]] (REQUEST)
s 1.106378809 _24_ RTR  --- 0 AODV 48 [0 ffffffff 23 800] ------- [24:255 -1:255 29 0] [0x2 2 1 [13 0] [35 4]] (REQUEST)
s 1.106385297 _15_ RTR  --- 0 AODV 48 [0 ffffffff 15 800] ------- [15:255 -1:255 28 0] [0x2 3 1 [13 0] [35 4]] (REQUEST)
s 1.106451423 _16_ RTR  --- 0 AODV 48 [0 ffffffff 1b 800] ------- [16:255 -1:255 28 0] [0x2 3 1 [13 0] [35 4]] (REQUEST)
s 1.106805615 _5_ RTR  --- 0 AODV 48 [0 ffffffff 15 800] ------- [5:255 -1:255 28 0] [0x2 3 1 [13 0] [35 4]] (REQUEST)
s 1.107540227 _14_ RTR  --- 0 AODV 48 [0 ffffffff 15 800] ------- [14:255 -1:255 28 0] [0x2 3 1 [13 0] [35 4]] (REQUEST)
s 1.107728495 _22_ RTR  --- 0 AODV 48 [0 ffffffff 1b 800] ------- [22:255 -1:255 28 0] [0x2 3 1 [13 0] [35 4]] (REQUEST)
s 1.107754951 _7_ RTR  --- 0 AODV 48 [0 ffffffff 15 800] ------- [7:255 -1:255 28 0] [0x2 3 1 [13 0] [35 4]] (REQUEST)
r 1.108403425 _10_ RTR  --- 0 AODV 48 [0 ffffffff b 800] ------- [11:255 -1:255 28 0] [0x2 3 1 [13 0] [35 4]] (REQUEST)
r 1.108403429 _12_ RTR  --- 0 AODV 48 [0 ffffffff b 800] ------- [11:255 -1:255 28 0] [0x2 3 1 [13 0] [35 4]] (REQUEST)
r 1.108403552 _3_ RTR  --- 0 AODV 48 [0 ffffffff b 800] ------- [11:255 -1:255 28 0] [0x2 3 1 [13 0] [35 4]] (REQUEST)
r 1.108403552 _19_ RTR  --- 0 AODV 48 [0 ffffffff b 800] ------- [11:255 -1:255 28 0] [0x2 3 1 [13 0] [35 4]] (REQUEST)
r 1.108403611 _2_ RTR  --- 0 AODV 48 [0 ffffffff b 800] ------- [11:255 -1:255 28 0] [0x2 3 1 [13 0] [35 4]] (REQUEST)
r 1.108403611 _18_ RTR  --- 0 AODV 48 [0 ffffffff b 800] ------- [11:255 -1:255 28 0] [0x2 3 1 [13 0] [35 4]] (REQUEST)
r 1.108403613 _4_ RTR  --- 0 AODV 48 [0 ffffffff b 800] ------- [11:255 -1:255 28 0] [0x2 3 1 [13 0] [35 4]] (REQUEST)
r 1.108403613 _20_ RTR  --- 0 AODV 48 [0 ffffffff b 800] ------- [11:255 -1:255 28 0] [0x2 3 1 [13 0] [35 4]] (REQUEST)
r 1.108403635 _9_ RTR  --- 0 AODV 48 [0 ffffffff b 800] ------- [11:255 -1:255 28 0] [0x2 3 1 [13 0] [35 4]] (REQUEST)
r 1.108403635 _13_ RTR  --- 0 AODV 48 [0 ffffffff b 800] ------- [11:255 -1:255 28 0] [0x2 3 1 [13 0] [35 4]] (REQUEST)
r 1.108403752 _5_ RTR  --- 0 AODV 48 [0 ffffffff b 800] ------- [11:255 -1:255 28 0] [0x2 3 1 [13 0] [35 4]] (REQUEST)
r 1.108403752 _1_ RTR  --- 0 AODV 48 [0 ffffffff b 800] ------- [11:255 -1:255 28 0] [0x2 3 1 [13 0] [35 4]] (REQUEST)
r 1.108403752 _17_ RTR  --- 0 AODV 48 [0 ffffffff b 800] ------- [11:255 -1:255 28 0] [0x2 3 1 [13 0] [35 4]] (REQUEST)
r 1.108403842 _8_ RTR  --- 0 AODV 48 [0 ffffffff b 800] ------- [11:255 -1:255 28 0] [0x2 3 1 [13 0] [35 4]] (REQUEST)
r 1.108403925 _0_ RTR  --- 0 AODV 48 [0 ffffffff b 800] ------- [11:255 -1:255 28 0] [0x2 3 1 [13 0] [35 4]] (REQUEST)
r 1.108403925 _16_ RTR  --- 0 AODV 48 [0 ffffffff b 800] ------- [11:255 -1:255 28 0] [0x2 3 1 [13 0] [35 4]] (REQUEST)
r 1.108403928 _6_ RTR  --- 0 AODV 48 [0 ffffffff b 800] ------- [11:255 -1:255 28 0] [0x2 3 1 [13 0] [35 4]] (REQUEST)
s 1.108483099 _1_ RTR  --- 0 AODV 48 [0 ffffffff b 800] ------- [1:255 -1:255 27 0] [0x2 4 1 [13 0] [35 4]] (REQUEST)
r 1.108521933 _39_ RTR  --- 0 AODV 48 [0 ffffffff 26 800] ------- [38:255 -1:255 29 0] [0x2 2 1 [13 0] [35 4]] (REQUEST)
r 1.108521937 _37_ RTR  --- 0 AODV 48 [0 ffffffff 26 800] ------- [38:255 -1:255 29 0] [0x2 2 1 [13 0] [35 4]] (REQUEST)
r 1.108522060 _30_ RTR  --- 0 AODV 48 [0 ffffffff 26 800] ------- [38:255 -1:255 29 0] [0x2 2 1 [13 0] [35 4]] (REQUEST)
r 1.108522119 _31_ RTR  --- 0 AODV 48 [0 ffffffff 26 800] ------- [38:255 -1:255 29 0] [0x2 2 1 [13 0] [35 4]] (REQUEST)
r 1.108522121 _29_ RTR  --- 0 AODV 48 [0 ffffffff 26 800] ------- [38:255 -1:255 29 0] [0x2 2 1 [13 0] [35 4]] (REQUEST)
r 1.108522143 _36_ RTR  --- 0 AODV 48 [0 ffffffff 26 800] ------- [38:255 -1:255 29 0] [0x2 2 1 [13 0] [35 4]] (REQUEST)
s 1.108968950 _31_ RTR  --- 0 AODV 48 [0 ffffffff 1b 800] ------- [31:255 -1:255 28 0] [0x2 3 1 [13 0] [35 4]] (REQUEST)
s 1.109202831 _6_ RTR  --- 0 AODV 48 [0 ffffffff 15 800] ------- [6:255 -1:255 28 0] [0x2 3 1 [13 0] [35 4]] (REQUEST)
s 1.109379850 _10_ RTR  --- 0 AODV 48 [0 ffffffff 1b 800] ------- [10:255 -1:255 28 0] [0x2 3 1 [13 0] [35 4]] (REQUEST)
r 1.110825003 _8_ RTR  --- 0 AODV 48 [0 ffffffff 9 800] ------- [9:255 -1:255 28 0] [0x2 3 1 [13 0] [35 4]] (REQUEST)
r 1.110825007 _10_ RTR  --- 0 AODV 48 [0 ffffffff 9 800] ------- [9:255 -1:255 28 0] [0x2 3 1 [13 0] [35 4]] (REQUEST)
r 1.110825130 _1_ RTR  --- 0 AODV 48 [0 ffffffff 9 800] ------- [9:255 -1:255 28 0] [0x2 3 1 [13 0] [35 4]] (REQUEST)
r 1.110825189 _0_ RTR  --- 0 AODV 48 [0 ffffffff 9 800] ------- [9:255 -1:255 28 0] [0x2 3 1 [13 0] [35 4]] (REQUEST)
r 1.110825191 _2_ RTR  --- 0 AODV 48 [0 ffffffff 9 800] ------- [9:255 -1:255 28 0] [0x2 3 1 [13 0] [35 4]] (REQUEST)
r 1.110941016 _25_ RTR  --- 0 AODV 48 [0 ffffffff 18 800] ------- [24:255 -1:255 29 0] [0x2 2 1 [13 0] [35 4]] (REQUEST)
r 1.110941143 _32_ RTR  --- 0 AODV 48 [0 ffffffff 18 800] ------- [24:255 -1:255 29 0] [0x2 2 1 [13 0] [35 4]] (REQUEST)
r 1.110941201 _33_ RTR  --- 0 AODV 48 [0 ffffffff 18 800] ------- [24:255 -1:255 29 0] [0x2 2 1 [13 0] [35 4]] (REQUEST)
r 1.110941343 _34_ RTR  --- 0 AODV 48 [0 ffffffff 18 800] ------- [24:255 -1:255 29 0] [0x2 2 1 [13 0] [35 4]] (REQUEST)
r 1.110947504 _14_ RTR  --- 0 AODV 48 [0 ffffffff f 800] ------- [15:255 -1:255 28 0] [0x2 3 1 [13 0] [35 4]] (REQUEST)
r 1.110947631 _7_ RTR  --- 0 AODV 48 [0 ffffffff f 800] ------- [15:255 -1:255 28 0] [0x2 3 1 [13 0] [35 4]] (REQUEST)
r 1.110947631 _23_ RTR  --- 0 AODV 48 [0 ffffffff f 800] ------- [15:255 -1:255 28 0] [0x2 3 1 [13 0] [35 4]] (REQUEST)
r 1.110947690 _6_ RTR  --- 0 AODV 48 [0 ffffffff f 800] ------- [15:255 -1:255 28 0] [0x2 3 1 [13 0] [35 4]] (REQUEST)
r 1.110947690 _22_ RTR  --- 0 AODV 48 [0 ffffffff f 800] ------- [15:255 -1:255 28 0] [0x2 3 1 [13 0] [35 4]] (REQUEST)
r 1.110947714 _13_ RTR  --- 0 AODV 48 [0 ffffffff f 800] ------- [15:255 -1:255 28 0] [0x2 3 1 [13 0] [35 4]] (REQUEST)
r 1.110947964 _31_ RTR  --- 0 AODV 48 [0 ffffffff f 800] ------- [15:255 -1:255 28 0] [0x2 3 1 [13 0] [35 4]] (REQUEST)
s 1.111041512 _0_ RTR  --- 0 AODV 48 [0 ffffffff b 800] ------- [0:255 -1:255 27 0] [0x2 4 1 [13 0] [35 4]] (REQUEST)
s 1.111483097 _2_ RTR  --- 0 AODV 48 [0 ffffffff b 800] ------- [2:255 -1:255 27 0] [0x2 4 1 [13 0] [35 4]] (REQUEST)
r 1.112969537 _18_ RTR  --- 0 AODV 48 [0 ffffffff 13 800] ------- [19:255 -1:255 29 0] [0x2 2 1 [13 0] [35 4]] (REQUEST)
r 1.112969540 _20_ RTR  --- 0 AODV 48 [0 ffffffff 13 800] ------- [19:255 -1:255 29 0] [0x2 2 1 [13 0] [35 4]] (REQUEST)
r 1.112969664 _11_ RTR  --- 0 AODV 48 [0 ffffffff 13 800] ------- [19:255 -1:255 29 0] [0x2 2 1 [13 0] [35 4]] (REQUEST)
r 1.112969664 _27_ RTR  --- 0 AODV 48 [0 ffffffff 13 800] ------- [19:255 -1:255 29 0] [0x2 2 1 [13 0] [35 4]] (REQUEST)
r 1.112969723 _10_ RTR  --- 0 AODV 48 [0 ffffffff 13 800] ------- [19:255 -1:255 29 0] [0x2 2 1 [13 0] [35 4]] (REQUEST)
r 1.112969723 _26_ RTR  --- 0 AODV 48 [0 ffffffff 13 800] ------- [19:255 -1:255 29 0] [0x2 2 1 [13 0] [35 4]] (REQUEST)
r 1.112969724 _12_ RTR  --- 0 AODV 48 [0 ffffffff 13 800] ------- [19:255 -1:255 29 0] [0x2 2 1 [13 0] [35 4]] (REQUEST)
r 1.112969724 _28_ RTR  --- 0 AODV 48 [0 ffffffff 13 800] ------- [19:255 -1:255 29 0] [0x2 2 1 [13 0] [35 4]] (REQUEST)
r 1.112969747 _17_ RTR  --- 0 AODV 48 [0 ffffffff 13 800] ------- [19:255 -1:255 29 0] [0x2 2 1 [13 0] [35 4]] (REQUEST)
r 1.112969747 _21_ RTR  --- 0 AODV 48 [0 ffffffff 13 800] ------- [19:255 -1:255 29 0] [0x2 2 1 [13 0] [35 4]] (REQUEST)
r 1.112969864 _13_ RTR  --- 0 AODV 48 [0 ffffffff 13 800] ------- [19:255 -1:255 29 0] [0x2 2 1 [13 0] [35 4]] (REQUEST)
r 1.112969864 _9_ RTR  --- 0 AODV 48 [0 ffffffff 13 800] ------- [19:255 -1:255 29 0] [0x2 2 1 [13 0] [35 4]] (REQUEST)
r 1.112969864 _25_ RTR  --- 0 AODV 48 [0 ffffffff 13 800] ------- [19:255 -1:255 29 0] [0x2 2 1 [13 0] [35 4]] (REQUEST)
r 1.112969864 _29_ RTR  --- 0 AODV 48 [0 ffffffff 13 800] ------- [19:255 -1:255 29 0] [0x2 2 1 [13 0] [35 4]] (REQUEST)
r 1.112969954 _16_ RTR  --- 0 AODV 48 [0 ffffffff 13 800] ------- [19:255 -1:255 29 0] [0x2 2 1 [13 0] [35 4]] (REQUEST)
r 1.112969957 _22_ RTR  --- 0 AODV 48 [0 ffffffff 13 800] ------- [19:255 -1:255 29 0] [0x2 2 1 [13 0] [35 4]] (REQUEST)
r 1.112969997 _3_ RTR  --- 0 AODV 48 [0 ffffffff 13 800] ------- [19:255 -1:255 29 0] [0x2 2 1 [13 0] [35 4]] (REQUEST)
r 1.112969997 _35_ RTR  --- 0 AODV 48 [0 ffffffff 13 800] ------- [19:255 -1:255 29 0] [0x2 2 1 [13 0] [35 4]] (REQUEST)
r 1.112970028 _2_ RTR  --- 0 AODV 48 [0 ffffffff 13 800] ------- [19:255 -1:255 29 0] [0x2 2 1 [13 0] [35 4]] (REQUEST)
r 1.112970028 _34_ RTR  --- 0 AODV 48 [0 ffffffff 13 800] ------- [19:255 -1:255 29 0] [0x2 2 1 [13 0] [35 4]] (REQUEST)
r 1.112970029 _4_ RTR  --- 0 AODV 48 [0 ffffffff 13 800] ------- [19:255 -1:255 29 0] [0x2 2 1 [13 0] [35 4]] (REQUEST)
r 1.112970029 _36_ RTR  --- 0 AODV 48 [0 ffffffff 13 800] ------- [19:255 -1:255 29 0] [0x2 2 1 [13 0] [35 4]] (REQUEST)
r 1.112970037 _8_ RTR  --- 0 AODV 48 [0 ffffffff 13 800] ------- [19:255 -1:255 29 0] [0x2 2 1 [13 0] [35 4]] (REQUEST)
r 1.112970040 _14_ RTR  --- 0 AODV 48 [0 ffffffff 13 800] ------- [19:255 -1:255 29 0] [0x2 2 1 [13 0] [35 4]] (REQUEST)
r 1.112970040 _30_ RTR  --- 0 AODV 48 [0 ffffffff 13 800] ------- [19:255 -1:255 29 0] [0x2 2 1 [13 0] [35 4]] (REQUEST)
r 1.112970117 _5_ RTR  --- 0 AODV 48 [0 ffffffff 13 800] ------- [19:255 -1:255 29 0] [0x2 2 1 [13 0] [35 4]] (REQUEST)
r 1.112970117 _1_ RTR  --- 0 AODV 48 [0 ffffffff 13 800] ------- [19:255 -1:255 29 0] [0x2 2 1 [13 0] [35 4]] (REQUEST)
r 1.112970117 _33_ RTR  --- 0 AODV 48 [0 ffffffff 13 800] ------- [19:255 -1:255 29 0] [0x2 2 1 [13 0] [35 4]] (REQUEST)
r 1.112970117 _37_ RTR  --- 0 AODV 48 [0 ffffffff 13 800] ------- [19:255 -1:255 29 0] [0x2 2 1 [13 0] [35 4]] (REQUEST)
r 1.112970164 _23_ RTR  --- 0 AODV 48 [0 ffffffff 13 800] ------- [19:255 -1:255 29 0] [0x2 2 1 [13 0] [35 4]] (REQUEST)
r 1.115218048 _36_ RTR  --- 0 AODV 48 [0 ffffffff 25 800] ------- [37:255 -1:255 29 0] [0x2 2 1 [13 0] [35 4]] (REQUEST)
r 1.115218052 _38_ RTR  --- 0 AODV 48 [0 ffffffff 25 800] ------- [37:255 -1:255 29 0] [0x2 2 1 [13 0] [35 4]] (REQUEST)
r 1.115218175 _29_ RTR  --- 0 AODV 48 [0 ffffffff 25 800] ------- [37:255 -1:255 29 0] [0x2 2 1 [13 0] [35 4]] (REQUEST)
r 1.115218234 _28_ RTR  --- 0 AODV 48 [0 ffffffff 25 800] ------- [37:255 -1:255 29 0] [0x2 2 1 [13 0] [35 4]] (REQUEST)
r 1.115218236 _30_ RTR  --- 0 AODV 48 [0 ffffffff 25 800] ------- [37:255 -1:255 29 0] [0x2 2 1 [13 0] [35 4]] (REQUEST)
r 1.115218258 _35_ RTR  --- 0 AODV 48 [0 ffffffff 25 800] ------- [37:255 -1:255 29 0] [0x2 2 1 [13 0] [35 4]] (REQUEST)
r 1.115218258 _39_ RTR  --- 0 AODV 48 [0 ffffffff 25 800] ------- [37:255 -1:255 29 0] [0x2 2 1 [13 0] [35 4]] (REQUEST)
r 1.115218375 _31_ RTR  --- 0 AODV 48 [0 ffffffff 25 800] ------- [37:255 -1:255 29 0] [0x2 2 1 [13 0] [35 4]] (REQUEST)
r 1.115218375 _27_ RTR  --- 0 AODV 48 [0 ffffffff 25 800] ------- [37:255 -1:255 29 0] [0x2 2 1 [13 0] [35 4]] (REQUEST)
r 1.115218465 _34_ RTR  --- 0 AODV 48 [0 ffffffff 25 800] ------- [37:255 -1:255 29 0] [0x2 2 1 [13 0] [35 4]] (REQUEST)
r 1.115218508 _21_ RTR  --- 0 AODV 48 [0 ffffffff 25 800] ------- [37:255 -1:255 29 0] [0x2 2 1 [13 0] [35 4]] (REQUEST)
r 1.115218540 _20_ RTR  --- 0 AODV 48 [0 ffffffff 25 800] ------- [37:255 -1:255 29 0] [0x2 2 1 [13 0] [35 4]] (REQUEST)
r 1.115218540 _22_ RTR  --- 0 AODV 48 [0 ffffffff 25 800] ------- [37:255 -1:255 29 0] [0x2 2 1 [13 0] [35 4]] (REQUEST)
r 1.115218548 _26_ RTR  --- 0 AODV 48 [0 ffffffff 25 800] ------- [37:255 -1:255 29 0] [0x2 2 1 [13 0] [35 4]] (REQUEST)
r 1.115218628 _23_ RTR  --- 0 AODV 48 [0 ffffffff 25 800] ------- [37:255 -1:255 29 0] [0x2 2 1 [13 0] [35 4]] (REQUEST)
r 1.115218628 _19_ RTR  --- 0 AODV 48 [0 ffffffff 25 800] ------- [37:255 -1:255 29 0] [0x2 2 1 [13 0] [35 4]] (REQUEST)
r 1.115218675 _33_ RTR  --- 0 AODV 48 [0 ffffffff 25 800] ------- [37:255 -1:255 29 0] [0x2 2 1 [13 0] [35 4]] (REQUEST)
s 1.115302914 _8_ RTR  --- 0 AODV 48 [0 ffffffff b 800] ------- [8:255 -1:255 27 0] [0x2 4 1 [13 0] [35 4]] (REQUEST)
r 1.117538702 _23_ RTR  --- 0 AODV 48 [0 ffffffff 16 800] ------- [22:255 -1:255 28 0] [0x2 3 1 [13 0] [35 4]] (REQUEST)
r 1.117572126 _27_ RTR  --- 0 AODV 48 [0 ffffffff 1c 800] ------- [28:255 -1:255 29 0] [0x2 2 1 [13 0] [35 4]] (REQUEST)
r 1.117572250 _36_ RTR  --- 0 AODV 48 [0 ffffffff 1c 800] ------- [28:255 -1:255 29 0] [0x2 2 1 [13 0] [35 4]] (REQUEST)
r 1.117572310 _35_ RTR  --- 0 AODV 48 [0 ffffffff 1c 800] ------- [28:255 -1:255 29 0] [0x2 2 1 [13 0] [35 4]] (REQUEST)
r 1.117572333 _26_ RTR  --- 0 AODV 48 [0 ffffffff 1c 800] ------- [28:255 -1:255 29 0] [0x2 2 1 [13 0] [35 4]] (REQUEST)
r 1.117572450 _34_ RTR  --- 0 AODV 48 [0 ffffffff 1c 800] ------- [28:255 -1:255 29 0] [0x2 2 1 [13 0] [35 4]] (REQUEST)
r 1.117639822 _4_ RTR  --- 0 AODV 48 [0 ffffffff 5 800] ------- [5:255 -1:255 28 0] [0x2 3 1 [13 0] [35 4]] (REQUEST)
r 1.117639825 _6_ RTR  --- 0 AODV 48 [0 ffffffff 5 800] ------- [5:255 -1:255 28 0] [0x2 3 1 [13 0] [35 4]] (REQUEST)
r 1.117640032 _3_ RTR  --- 0 AODV 48 [0 ffffffff 5 800] ------- [5:255 -1:255 28 0] [0x2 3 1 [13 0] [35 4]] (REQUEST)
r 1.119933144 _22_ RTR  --- 0 AODV 48 [0 ffffffff 17 800] ------- [23:255 -1:255 28 0] [0x2 3 1 [13 0] [35 4]] (REQUEST)
r 1.119933271 _15_ RTR  --- 0 AODV 48 [0 ffffffff 17 800] ------- [23:255 -1:255 28 0] [0x2 3 1 [13 0] [35 4]] (REQUEST)
r 1.119933271 _31_ RTR  --- 0 AODV 48 [0 ffffffff 17 800] ------- [23:255 -1:255 28 0] [0x2 3 1 [13 0] [35 4]] (REQUEST)
r 1.119933330 _14_ RTR  --- 0 AODV 48 [0 ffffffff 17 800] ------- [23:255 -1:255 28 0] [0x2 3 1 [13 0] [35 4]] (REQUEST)
r 1.119933330 _30_ RTR  --- 0 AODV 48 [0 ffffffff 17 800] ------- [23:255 -1:255 28 0] [0x2 3 1 [13 0] [35 4]] (REQUEST)
r 1.119933354 _21_ RTR  --- 0 AODV 48 [0 ffffffff 17 800] ------- [23:255 -1:255 28 0] [0x2 3 1 [13 0] [35 4]] (REQUEST)
r 1.119933471 _13_ RTR  --- 0 AODV 48 [0 ffffffff 17 800] ------- [23:255 -1:255 28 0] [0x2 3 1 [13 0] [35 4]] (REQUEST)
r 1.119933471 _29_ RTR  --- 0 AODV 48 [0 ffffffff 17 800] ------- [23:255 -1:255 28 0] [0x2 3 1 [13 0] [35 4]] (REQUEST)
r 1.119933561 _20_ RTR  --- 0 AODV 48 [0 ffffffff 17 800] ------- [23:255 -1:255 28 0] [0x2 3 1 [13 0] [35 4]] (REQUEST)
r 1.119933604 _7_ RTR  --- 0 AODV 48 [0 ffffffff 17 800] ------- [23:255 -1:255 28 0] [0x2 3 1 [13 0] [35 4]] (REQUEST)
r 1.119933604 _39_ RTR  --- 0 AODV 48 [0 ffffffff 17 800] ------- [23:255 -1:255 28 0] [0x2 3 1 [13 0] [35 4]] (REQUEST)
r 1.119933635 _6_ RTR  --- 0 AODV 48 [0 ffffffff 17 800] ------- [23:255 -1:255 28 0] [0x2 3 1 [13 0] [35 4]] (REQUEST)
r 1.119933635 _38_ RTR  --- 0 AODV 48 [0 ffffffff 17 800] ------- [23:255 -1:255 28 0] [0x2 3 1 [13 0] [35 4]] (REQUEST)
r 1.119933644 _12_ RTR  --- 0 AODV 48 [0 ffffffff 17 800] ------- [23:255 -1:255 28 0] [0x2 3 1 [13 0] [35 4]] (REQUEST)
r 1.119933644 _28_ RTR  --- 0 AODV 48 [0 ffffffff 17 800] ------- [23:255 -1:255 28 0] [0x2 3 1 [13 0] [35 4]] (REQUEST)
r 1.119933723 _5_ RTR  --- 0 AODV 48 [0 ffffffff 17 800] ------- [23:255 -1:255 28 0] [0x2 3 1 [13 0] [35 4]] (REQUEST)
r 1.119933723 _37_ RTR  --- 0 AODV 48 [0 ffffffff 17 800] ------- [23:255 -1:255 28 0] [0x2 3 1 [13 0] [35 4]] (REQUEST)
r 1.119933771 _19_ RTR  --- 0 AODV 48 [0 ffffffff 17 800] ------- [23:255 -1:255 28 0] [0x2 3 1 [13 0] [35 4]] (REQUEST)
r 1.122326060 _9_ RTR  --- 0 AODV 48 [0 ffffffff a 800] ------- [10:255 -1:255 28 0] [0x2 3 1 [13 0] [35 4]] (REQUEST)
r 1.122455645 _13_ RTR  --- 0 AODV 48 [0 ffffffff c 800] ------- [12:255 -1:255 28 0] [0x2 3 1 [13 0] [35 4]] (REQUEST)
r 1.125050910 _27_ RTR  --- 0 AODV 48 [0 ffffffff 1a 800] ------- [26:255 -1:255 29 0] [0x2 2 1 [13 0] [35 4]] (REQUEST)
r 1.125050913 _25_ RTR  --- 0 AODV 48 [0 ffffffff 1a 800] ------- [26:255 -1:255 29 0] [0x2 2 1 [13 0] [35 4]] (REQUEST)
r 1.125051036 _18_ RTR  --- 0 AODV 48 [0 ffffffff 1a 800] ------- [26:255 -1:255 29 0] [0x2 2 1 [13 0] [35 4]] (REQUEST)
r 1.125051036 _34_ RTR  --- 0 AODV 48 [0 ffffffff 1a 800] ------- [26:255 -1:255 29 0] [0x2 2 1 [13 0] [35 4]] (REQUEST)
r 1.125051095 _19_ RTR  --- 0 AODV 48 [0 ffffffff 1a 800] ------- [26:255 -1:255 29 0] [0x2 2 1 [13 0] [35 4]] (REQUEST)
r 1.125051095 _35_ RTR  --- 0 AODV 48 [0 ffffffff 1a 800] ------- [26:255 -1:255 29 0] [0x2 2 1 [13 0] [35 4]] (REQUEST)
r 1.125051097 _17_ RTR  --- 0 AODV 48 [0 ffffffff 1a 800] ------- [26:255 -1:255 29 0] [0x2 2 1 [13 0] [35 4]] (REQUEST)
r 1.125051097 _33_ RTR  --- 0 AODV 48 [0 ffffffff 1a 800] ------- [26:255 -1:255 29 0] [0x2 2 1 [13 0] [35 4]] (REQUEST)
r 1.125051120 _24_ RTR  --- 0 AODV 48 [0 ffffffff 1a 800] ------- [26:255 -1:255 29 0] [0x2 2 1 [13 0] [35 4]] (REQUEST)
r 1.125051120 _28_ RTR  --- 0 AODV 48 [0 ffffffff 1a 800] ------- [26:255 -1:255 29 0] [0x2 2 1 [13 0] [35 4]] (REQUEST)