s 1.028573734 _36_ AGT  --- 0 tcp 40 [0 0 0 0] ------- [36:1 29:3 32 0] [0 0] 0 0
r 1.028573734 _36_ RTR  --- 0 tcp 40 [0 0 0 0] ------- [36:1 29:3 32 0] [0 0] 0 0
s 1.028573734 _36_ RTR  --- 0 AODV 48 [0 0 0 0] ------- [36:255 -1:255 30 0] [0x2 1 1 [29 0] [36 4]] (REQUEST)
r 1.031855941 _37_ RTR  --- 0 AODV 48 [0 ffffffff 24 800] ------- [36:255 -1:255 30 0] [0x2 1 1 [29 0] [36 4]] (REQUEST)
r 1.031855944 _35_ RTR  --- 0 AODV 48 [0 ffffffff 24 800] ------- [36:255 -1:255 30 0] [0x2 1 1 [29 0] [36 4]] (REQUEST)
r 1.031856068 _28_ RTR  --- 0 AODV 48 [0 ffffffff 24 800] ------- [36:255 -1:255 30 0] [0x2 1 1 [29 0] [36 4]] (REQUEST)
r 1.031856127 _29_ RTR  --- 0 AODV 48 [0 ffffffff 24 800] ------- [36:255 -1:255 30 0] [0x2 1 1 [29 0] [36 4]] (REQUEST)
s 1.031856127 _29_ RTR  --- 0 AODV 44 [0 0 0 0] ------- [29:255 36:255 30 36] [0x4 1 [29 4] 10.000000] (REPLY)
r 1.031856128 _27_ RTR  --- 0 AODV 48 [0 ffffffff 24 800] ------- [36:255 -1:255 30 0] [0x2 1 1 [29 0] [36 4]] (REQUEST)
r 1.031856151 _34_ RTR  --- 0 AODV 48 [0 ffffffff 24 800] ------- [36:255 -1:255 30 0] [0x2 1 1 [29 0] [36 4]] (REQUEST)
r 1.031856151 _38_ RTR  --- 0 AODV 48 [0 ffffffff 24 800] ------- [36:255 -1:255 30 0] [0x2 1 1 [29 0] [36 4]] (REQUEST)
r 1.031856268 _30_ RTR  --- 0 AODV 48 [0 ffffffff 24 800] ------- [36:255 -1:255 30 0] [0x2 1 1 [29 0] [36 4]] (REQUEST)
r 1.031856268 _26_ RTR  --- 0 AODV 48 [0 ffffffff 24 800] ------- [36:255 -1:255 30 0] [0x2 1 1 [29 0] [36 4]] (REQUEST)
r 1.031856358 _39_ RTR  --- 0 AODV 48 [0 ffffffff 24 800] ------- [36:255 -1:255 30 0] [0x2 1 1 [29 0] [36 4]] (REQUEST)
r 1.031856361 _33_ RTR  --- 0 AODV 48 [0 ffffffff 24 800] ------- [36:255 -1:255 30 0] [0x2 1 1 [29 0] [36 4]] (REQUEST)
r 1.031856401 _20_ RTR  --- 0 AODV 48 [0 ffffffff 24 800] ------- [36:255 -1:255 30 0] [0x2 1 1 [29 0] [36 4]] (REQUEST)
r 1.031856432 _21_ RTR  --- 0 AODV 48 [0 ffffffff 24 800] ------- [36:255 -1:255 30 0] [0x2 1 1 [29 0] [36 4]] (REQUEST)
r 1.031856433 _19_ RTR  --- 0 AODV 48 [0 ffffffff 24 800] ------- [36:255 -1:255 30 0] [0x2 1 1 [29 0] [36 4]] (REQUEST)
r 1.031856441 _31_ RTR  --- 0 AODV 48 [0 ffffffff 24 800] ------- [36:255 -1:255 30 0] [0x2 1 1 [29 0] [36 4]] (REQUEST)
r 1.031856444 _25_ RTR  --- 0 AODV 48 [0 ffffffff 24 800] ------- [36:255 -1:255 30 0] [0x2 1 1 [29 0] [36 4]] (REQUEST)
r 1.031856521 _22_ RTR  --- 0 AODV 48 [0 ffffffff 24 800] ------- [36:255 -1:255 30 0] [0x2 1 1 [29 0] [36 4]] (REQUEST)
r 1.031856521 _18_ RTR  --- 0 AODV 48 [0 ffffffff 24 800] ------- [36:255 -1:255 30 0] [0x2 1 1 [29 0] [36 4]] (REQUEST)
r 1.031856568 _32_ RTR  --- 0 AODV 48 [0 ffffffff 24 800] ------- [36:255 -1:255 30 0] [0x2 1 1 [29 0] [36 4]] (REQUEST)
s 1.032272131 _20_ RTR  --- 0 AODV 48 [0 ffffffff 24 800] ------- [20:255 -1:255 29 0] [0x2 2 1 [29 0] [36 4]] (REQUEST)
s 1.032395602 _31_ RTR  --- 0 AODV 48 [0 ffffffff 24 800] ------- [31:255 -1:255 29 0] [0x2 2 1 [29 0] [36 4]] (REQUEST)
s 1.032409987 _18_ RTR  --- 0 AODV 48 [0 ffffffff 24 800] ------- [18:255 -1:255 29 0] [0x2 2 1 [29 0] [36 4]] (REQUEST)
s 1.032630406 _21_ RTR  --- 0 AODV 48 [0 ffffffff 24 800] ------- [21:255 -1:255 29 0] [0x2 2 1 [29 0] [36 4]] (REQUEST)
s 1.033050591 _19_ RTR  --- 0 AODV 48 [0 ffffffff 24 800] ------- [19:255 -1:255 29 0] [0x2 2 1 [29 0] [36 4]] (REQUEST)
s 1.033474504 _35_ RTR  --- 0 AODV 48 [0 ffffffff 24 800] ------- [35:255 -1:255 29 0] [0x2 2 1 [29 0] [36 4]] (REQUEST)
s 1.033520853 _39_ RTR  --- 0 AODV 48 [0 ffffffff 24 800] ------- [39:255 -1:255 29 0] [0x2 2 1 [29 0] [36 4]] (REQUEST)
s 1.033785403 _33_ RTR  --- 0 AODV 48 [0 ffffffff 24 800] ------- [33:255 -1:255 29 0] [0x2 2 1 [29 0] [36 4]] (REQUEST)
s 1.033999894 _22_ RTR  --- 0 AODV 48 [0 ffffffff 24 800] ------- [22:255 -1:255 29 0] [0x2 2 1 [29 0] [36 4]] (REQUEST)
s 1.034503552 _28_ RTR  --- 0 AODV 48 [0 ffffffff 24 800] ------- [28:255 -1:255 29 0] [0x2 2 1 [29 0] [36 4]] (REQUEST)
s 1.034660553 _26_ RTR  --- 0 AODV 48 [0 ffffffff 24 800] ------- [26:255 -1:255 29 0] [0x2 2 1 [29 0] [36 4]] (REQUEST)
s 1.035447786 _25_ RTR  --- 0 AODV 48 [0 ffffffff 24 800] ------- [25:255 -1:255 29 0] [0x2 2 1 [29 0] [36 4]] (REQUEST)
s 1.035642501 _27_ RTR  --- 0 AODV 48 [0 ffffffff 24 800] ------- [27:255 -1:255 29 0] [0x2 2 1 [29 0] [36 4]] (REQUEST)
r 1.036756710 _34_ RTR  --- 0 AODV 48 [0 ffffffff 23 800] ------- [35:255 -1:255 29 0] [0x2 2 1 [29 0] [36 4]] (REQUEST)
r 1.036756714 _36_ RTR  --- 0 AODV 48 [0 ffffffff 23 800] ------- [35:255 -1:255 29 0] [0x2 2 1 [29 0] [36 4]] (REQUEST)
r 1.036756837 _27_ RTR  --- 0 AODV 48 [0 ffffffff 23 800] ------- [35:255 -1:255 29 0] [0x2 2 1 [29 0] [36 4]] (REQUEST)
r 1.036756896 _26_ RTR  --- 0 AODV 48 [0 ffffffff 23 800] ------- [35:255 -1:255 29 0] [0x2 2 1 [29 0] [36 4]] (REQUEST)
r 1.036756898 _28_ RTR  --- 0 AODV 48 [0 ffffffff 23 800] ------- [35:255 -1:255 29 0] [0x2 2 1 [29 0] [36 4]] (REQUEST)
r 1.036756920 _33_ RTR  --- 0 AODV 48 [0 ffffffff 23 800] ------- [35:255 -1:255 29 0] [0x2 2 1 [29 0] [36 4]] (REQUEST)
r 1.036756920 _37_ RTR  --- 0 AODV 48 [0 ffffffff 23 800] ------- [35:255 -1:255 29 0] [0x2 2 1 [29 0] [36 4]] (REQUEST)
r 1.036757037 _29_ RTR  --- 0 AODV 48 [0 ffffffff 23 800] ------- [35:255 -1:255 29 0] [0x2 2 1 [29 0] [36 4]] (REQUEST)
r 1.036757037 _25_ RTR  --- 0 AODV 48 [0 ffffffff 23 800] ------- [35:255 -1:255 29 0] [0x2 2 1 [29 0] [36 4]] (REQUEST)
r 1.036757127 _32_ RTR  --- 0 AODV 48 [0 ffffffff 23 800] ------- [35:255 -1:255 29 0] [0x2 2 1 [29 0] [36 4]] (REQUEST)
r 1.036757130 _38_ RTR  --- 0 AODV 48 [0 ffffffff 23 800] ------- [35:255 -1:255 29 0] [0x2 2 1 [29 0] [36 4]] (REQUEST)
r 1.036757170 _19_ RTR  --- 0 AODV 48 [0 ffffffff 23 800] ------- [35:255 -1:255 29 0] [0x2 2 1 [29 0] [36 4]] (REQUEST)
r 1.036757202 _18_ RTR  --- 0 AODV 48 [0 ffffffff 23 800] ------- [35:255 -1:255 29 0] [0x2 2 1 [29 0] [36 4]] (REQUEST)
r 1.036757203 _20_ RTR  --- 0 AODV 48 [0 ffffffff 23 800] ------- [35:255 -1:255 29 0] [0x2 2 1 [29 0] [36 4]] (REQUEST)
r 1.036757210 _24_ RTR  --- 0 AODV 48 [0 ffffffff 23 800] ------- [35:255 -1:255 29 0] [0x2 2 1 [29 0] [36 4]] (REQUEST)
r 1.036757213 _30_ RTR  --- 0 AODV 48 [0 ffffffff 23 800] ------- [35:255 -1:255 29 0] [0x2 2 1 [29 0] [36 4]] (REQUEST)
r 1.036757290 _21_ RTR  --- 0 AODV 48 [0 ffffffff 23 800] ------- [35:255 -1:255 29 0] [0x2 2 1 [29 0] [36 4]] (REQUEST)
r 1.036757290 _17_ RTR  --- 0 AODV 48 [0 ffffffff 23 800] ------- [35:255 -1:255 29 0] [0x2 2 1 [29 0] [36 4]] (REQUEST)
r 1.036757337 _39_ RTR  --- 0 AODV 48 [0 ffffffff 23 800] ------- [35:255 -1:255 29 0] [0x2 2 1 [29 0] [36 4]] (REQUEST)
s 1.036836557 _24_ RTR  --- 0 AODV 48 [0 ffffffff 23 800] ------- [24:255 -1:255 28 0] [0x2 3 1 [29 0] [36 4]] (REQUEST)
s 1.037973433 _34_ RTR  --- 0 AODV 48 [0 ffffffff 24 800] ------- [34:255 -1:255 29 0] [0x2 2 1 [29 0] [36 4]] (REQUEST)
s 1.038410568 _38_ RTR  --- 0 AODV 48 [0 ffffffff 24 800] ------- [38:255 -1:255 29 0] [0x2 2 1 [29 0] [36 4]] (REQUEST)
s 1.038428506 _37_ RTR  --- 0 AODV 48 [0 ffffffff 24 800] ------- [37:255 -1:255 29 0] [0x2 2 1 [29 0] [36 4]] (REQUEST)
r 1.039171059 _38_ RTR  --- 0 AODV 48 [0 ffffffff 27 800] ------- [39:255 -1:255 29 0] [0x2 2 1 [29 0] [36 4]] (REQUEST)
r 1.039171186 _31_ RTR  --- 0 AODV 48 [0 ffffffff 27 800] ------- [39:255 -1:255 29 0] [0x2 2 1 [29 0] [36 4]] (REQUEST)
r 1.039193758 _29_ RTR  --- 0 AODV 48 [0 ffffffff 1c 800] ------- [28:255 -1:255 29 0] [0x2 2 1 [29 0] [36 4]] (REQUEST)
r 1.039193762 _27_ RTR  --- 0 AODV 48 [0 ffffffff 1c 800] ------- [28:255 -1:255 29 0] [0x2 2 1 [29 0] [36 4]] (REQUEST)
r 1.039193885 _20_ RTR  --- 0 AODV 48 [0 ffffffff 1c 800] ------- [28:255 -1:255 29 0] [0x2 2 1 [29 0] [36 4]] (REQUEST)
r 1.039193885 _36_ RTR  --- 0 AODV 48 [0 ffffffff 1c 800] ------- [28:255 -1:255 29 0] [0x2 2 1 [29 0] [36 4]] (REQUEST)
r 1.039193944 _21_ RTR  --- 0 AODV 48 [0 ffffffff 1c 800] ------- [28:255 -1:255 29 0] [0x2 2 1 [29 0] [36 4]] (REQUEST)
r 1.039193946 _19_ RTR  --- 0 AODV 48 [0 ffffffff 1c 800] ------- [28:255 -1:255 29 0] [0x2 2 1 [29 0] [36 4]] (REQUEST)
r 1.039193946 _35_ RTR  --- 0 AODV 48 [0 ffffffff 1c 800] ------- [28:255 -1:255 29 0] [0x2 2 1 [29 0] [36 4]] (REQUEST)
r 1.039193968 _26_ RTR  --- 0 AODV 48 [0 ffffffff 1c 800] ------- [28:255 -1:255 29 0] [0x2 2 1 [29 0] [36 4]] (REQUEST)
r 1.039194085 _18_ RTR  --- 0 AODV 48 [0 ffffffff 1c 800] ------- [28:255 -1:255 29 0] [0x2 2 1 [29 0] [36 4]] (REQUEST)
r 1.039194085 _34_ RTR  --- 0 AODV 48 [0 ffffffff 1c 800] ------- [28:255 -1:255 29 0] [0x2 2 1 [29 0] [36 4]] (REQUEST)
r 1.039194178 _25_ RTR  --- 0 AODV 48 [0 ffffffff 1c 800] ------- [28:255 -1:255 29 0] [0x2 2 1 [29 0] [36 4]] (REQUEST)
r 1.039194251 _11_ RTR  --- 0 AODV 48 [0 ffffffff 1c 800] ------- [28:255 -1:255 29 0] [0x2 2 1 [29 0] [36 4]] (REQUEST)
r 1.039194261 _17_ RTR  --- 0 AODV 48 [0 ffffffff 1c 800] ------- [28:255 -1:255 29 0] [0x2 2 1 [29 0] [36 4]] (REQUEST)
r 1.039194338 _10_ RTR  --- 0 AODV 48 [0 ffffffff 1c 800] ------- [28:255 -1:255 29 0] [0x2 2 1 [29 0] [36 4]] (REQUEST)
r 1.039194385 _24_ RTR  --- 0 AODV 48 [0 ffffffff 1c 800] ------- [28:255 -1:255 29 0] [0x2 2 1 [29 0] [36 4]] (REQUEST)
s 1.040401823 _30_ RTR  --- 0 AODV 48 [0 ffffffff 24 800] ------- [30:255 -1:255 29 0] [0x2 2 1 [29 0] [36 4]] (REQUEST)
s 1.040691332 _10_ RTR  --- 0 AODV 48 [0 ffffffff 1c 800] ------- [10:255 -1:255 28 0] [0x2 3 1 [29 0] [36 4]] (REQUEST)
s 1.041395052 _32_ RTR  --- 0 AODV 48 [0 ffffffff 24 800] ------- [32:255 -1:255 29 0] [0x2 2 1 [29 0] [36 4]] (REQUEST)
s 1.043200314 _20_ AGT  --- 1 tcp 40 [0 0 0 0] ------- [20:2 35:0 32 0] [0 0] 0 0
r 1.043200314 _20_ RTR  --- 1 tcp 40 [0 0 0 0] ------- [20:2 35:0 32 0] [0 0] 0 0
s 1.043200314 _20_ RTR  --- 0 AODV 48 [0 0 0 0] ------- [20:255 -1:255 30 0] [0x2 1 1 [35 0] [20 4]] (REQUEST)
s 1.043656362 _17_ RTR  --- 0 AODV 48 [0 ffffffff 23 800] ------- [17:255 -1:255 28 0] [0x2 3 1 [29 0] [36 4]] (REQUEST)
r 1.043913992 _24_ RTR  --- 0 AODV 48 [0 ffffffff 19 800] ------- [25:255 -1:255 29 0] [0x2 2 1 [29 0] [36 4]] (REQUEST)
r 1.043913996 _26_ RTR  --- 0 AODV 48 [0 ffffffff 19 800] ------- [25:255 -1:255 29 0] [0x2 2 1 [29 0] [36 4]] (REQUEST)
r 1.043914119 _17_ RTR  --- 0 AODV 48 [0 ffffffff 19 800] ------- [25:255 -1:255 29 0] [0x2 2 1 [29 0] [36 4]] (REQUEST)
r 1.043914119 _33_ RTR  --- 0 AODV 48 [0 ffffffff 19 800] ------- [25:255 -1:255 29 0] [0x2 2 1 [29 0] [36 4]] (REQUEST)
r 1.043914178 _16_ RTR  --- 0 AODV 48 [0 ffffffff 19 800] ------- [25:255 -1:255 29 0] [0x2 2 1 [29 0] [36 4]] (REQUEST)
r 1.043914178 _32_ RTR  --- 0 AODV 48 [0 ffffffff 19 800] ------- [25:255 -1:255 29 0] [0x2 2 1 [29 0] [36 4]] (REQUEST)
r 1.043914180 _34_ RTR  --- 0 AODV 48 [0 ffffffff 19 800] ------- [25:255 -1:255 29 0] [0x2 2 1 [29 0] [36 4]] (REQUEST)
r 1.044066338 _21_ RTR  --- 0 AODV 48 [0 ffffffff 14 800] ------- [20:255 -1:255 29 0] [0x2 2 1 [29 0] [36 4]] (REQUEST)
r 1.044066341 _19_ RTR  --- 0 AODV 48 [0 ffffffff 14 800] ------- [20:255 -1:255 29 0] [0x2 2 1 [29 0] [36 4]] (REQUEST)
r 1.044066464 _12_ RTR  --- 0 AODV 48 [0 ffffffff 14 800] ------- [20:255 -1:255 29 0] [0x2 2 1 [29 0] [36 4]] (REQUEST)
r 1.044066464 _28_ RTR  --- 0 AODV 48 [0 ffffffff 14 800] ------- [20:255 -1:255 29 0] [0x2 2 1 [29 0] [36 4]] (REQUEST)
r 1.044066523 _13_ RTR  --- 0 AODV 48 [0 ffffffff 14 800] ------- [20:255 -1:255 29 0] [0x2 2 1 [29 0] [36 4]] (REQUEST)
r 1.044066523 _29_ RTR  --- 0 AODV 48 [0 ffffffff 14 800] ------- [20:255 -1:255 29 0] [0x2 2 1 [29 0] [36 4]] (REQUEST)
r 1.044066525 _11_ RTR  --- 0 AODV 48 [0 ffffffff 14 800] ------- [20:255 -1:255 29 0] [0x2 2 1 [29 0] [36 4]] (REQUEST)
r 1.044066548 _22_ RTR  --- 0 AODV 48 [0 ffffffff 14 800] ------- [20:255 -1:255 29 0] [0x2 2 1 [29 0] [36 4]] (REQUEST)
r 1.044066665 _14_ RTR  --- 0 AODV 48 [0 ffffffff 14 800] ------- [20:255 -1:255 29 0] [0x2 2 1 [29 0] [36 4]] (REQUEST)
r 1.044066665 _30_ RTR  --- 0 AODV 48 [0 ffffffff 14 800] ------- [20:255 -1:255 29 0] [0x2 2 1 [29 0] [36 4]] (REQUEST)
r 1.044066754 _23_ RTR  --- 0 AODV 48 [0 ffffffff 14 800] ------- [20:255 -1:255 29 0] [0x2 2 1 [29 0] [36 4]] (REQUEST)
r 1.044066829 _5_ RTR  --- 0 AODV 48 [0 ffffffff 14 800] ------- [20:255 -1:255 29 0] [0x2 2 1 [29 0] [36 4]] (REQUEST)
r 1.044066838 _15_ RTR  --- 0 AODV 48 [0 ffffffff 14 800] ------- [20:255 -1:255 29 0] [0x2 2 1 [29 0] [36 4]] (REQUEST)
r 1.044066917 _6_ RTR  --- 0 AODV 48 [0 ffffffff 14 800] ------- [20:255 -1:255 29 0] [0x2 2 1 [29 0] [36 4]] (REQUEST)
s 1.045669419 _11_ RTR  --- 0 AODV 48 [0 ffffffff 1c 800] ------- [11:255 -1:255 28 0] [0x2 3 1 [29 0] [36 4]] (REQUEST)
r 1.046318713 _36_ RTR  --- 0 AODV 48 [0 ffffffff 25 800] ------- [37:255 -1:255 29 0] [0x2 2 1 [29 0] [36 4]] (REQUEST)
r 1.046318716 _38_ RTR  --- 0 AODV 48 [0 ffffffff 25 800] ------- [37:255 -1:255 29 0] [0x2 2 1 [29 0] [36 4]] (REQUEST)
r 1.046318839 _29_ RTR  --- 0 AODV 48 [0 ffffffff 25 800] ------- [37:255 -1:255 29 0] [0x2 2 1 [29 0] [36 4]] (REQUEST)
r 1.046318898 _28_ RTR  --- 0 AODV 48 [0 ffffffff 25 800] ------- [37:255 -1:255 29 0] [0x2 2 1 [29 0] [36 4]] (REQUEST)
r 1.046318900 _30_ RTR  --- 0 AODV 48 [0 ffffffff 25 800] ------- [37:255 -1:255 29 0] [0x2 2 1 [29 0] [36 4]] (REQUEST)
r 1.046318923 _35_ RTR  --- 0 AODV 48 [0 ffffffff 25 800] ------- [37:255 -1:255 29 0] [0x2 2 1 [29 0] [36 4]] (REQUEST)
r 1.046318923 _39_ RTR  --- 0 AODV 48 [0 ffffffff 25 800] ------- [37:255 -1:255 29 0] [0x2 2 1 [29 0] [36 4]] (REQUEST)
r 1.046319039 _31_ RTR  --- 0 AODV 48 [0 ffffffff 25 800] ------- [37:255 -1:255 29 0] [0x2 2 1 [29 0] [36 4]] (REQUEST)
r 1.046319039 _27_ RTR  --- 0 AODV 48 [0 ffffffff 25 800] ------- [37:255 -1:255 29 0] [0x2 2 1 [29 0] [36 4]] (REQUEST)
r 1.046319129 _34_ RTR  --- 0 AODV 48 [0 ffffffff 25 800] ------- [37:255 -1:255 29 0] [0x2 2 1 [29 0] [36 4]] (REQUEST)
r 1.046319173 _21_ RTR  --- 0 AODV 48 [0 ffffffff 25 800] ------- [37:255 -1:255 29 0] [0x2 2 1 [29 0] [36 4]] (REQUEST)
r 1.046319204 _20_ RTR  --- 0 AODV 48 [0 ffffffff 25 800] ------- [37:255 -1:255 29 0] [0x2 2 1 [29 0] [36 4]] (REQUEST)
r 1.046319205 _22_ RTR  --- 0 AODV 48 [0 ffffffff 25 800] ------- [37:255 -1:255 29 0] [0x2 2 1 [29 0] [36 4]] (REQUEST)
r 1.046319213 _26_ RTR  --- 0 AODV 48 [0 ffffffff 25 800] ------- [37:255 -1:255 29 0] [0x2 2 1 [29 0] [36 4]] (REQUEST)
r 1.046319292 _23_ RTR  --- 0 AODV 48 [0 ffffffff 25 800] ------- [37:255 -1:255 29 0] [0x2 2 1 [29 0] [36 4]] (REQUEST)
r 1.046319292 _19_ RTR  --- 0 AODV 48 [0 ffffffff 25 800] ------- [37:255 -1:255 29 0] [0x2 2 1 [29 0] [36 4]] (REQUEST)
r 1.046319339 _33_ RTR  --- 0 AODV 48 [0 ffffffff 25 800] ------- [37:255 -1:255 29 0] [0x2 2 1 [29 0] [36 4]] (REQUEST)
s 1.046554541 _23_ RTR  --- 0 AODV 48 [0 ffffffff 14 800] ------- [23:255 -1:255 28 0] [0x2 3 1 [29 0] [36 4]] (REQUEST)
r 1.048540774 _39_ RTR  --- 0 AODV 48 [0 ffffffff 26 800] ------- [38:255 -1:255 29 0] [0x2 2 1 [29 0] [36 4]] (REQUEST)
r 1.048540778 _37_ RTR  --- 0 AODV 48 [0 ffffffff 26 800] ------- [38:255 -1:255 29 0] [0x2 2 1 [29 0] [36 4]] (REQUEST)
r 1.048540901 _30_ RTR  --- 0 AODV 48 [0 ffffffff 26 800] ------- [38:255 -1:255 29 0] [0x2 2 1 [29 0] [36 4]] (REQUEST)
r 1.048540960 _31_ RTR  --- 0 AODV 48 [0 ffffffff 26 800] ------- [38:255 -1:255 29 0] [0x2 2 1 [29 0] [36 4]] (REQUEST)
r 1.048684801 _20_ RTR  --- 0 AODV 48 [0 ffffffff 13 800] ------- [19:255 -1:255 29 0] [0x2 2 1 [29 0] [36 4]] (REQUEST)
r 1.048684925 _11_ RTR  --- 0 AODV 48 [0 ffffffff 13 800] ------- [19:255 -1:255 29 0] [0x2 2 1 [29 0] [36 4]] (REQUEST)
r 1.048684985 _12_ RTR  --- 0 AODV 48 [0 ffffffff 13 800] ------- [19:255 -1:255 29 0] [0x2 2 1 [29 0] [36 4]] (REQUEST)
r 1.048694763 _25_ RTR  --- 0 AODV 48 [0 ffffffff 1a 800] ------- [26:255 -1:255 29 0] [0x2 2 1 [29 0] [36 4]] (REQUEST)
r 1.048694886 _34_ RTR  --- 0 AODV 48 [0 ffffffff 1a 800] ------- [26:255 -1:255 29 0] [0x2 2 1 [29 0] [36 4]] (REQUEST)
r 1.048694947 _33_ RTR  --- 0 AODV 48 [0 ffffffff 1a 800] ------- [26:255 -1:255 29 0] [0x2 2 1 [29 0] [36 4]] (REQUEST)
s 1.048796726 _12_ RTR  --- 0 AODV 48 [0 ffffffff 14 800] ------- [12:255 -1:255 28 0] [0x2 3 1 [29 0] [36 4]] (REQUEST)
s 1.049096431 _14_ RTR  --- 0 AODV 48 [0 ffffffff 14 800] ------- [14:255 -1:255 28 0] [0x2 3 1 [29 0] [36 4]] (REQUEST)
r 1.050978101 _23_ RTR  --- 0 AODV 48 [0 ffffffff 16 800] ------- [22:255 -1:255 29 0] [0x2 2 1 [29 0] [36 4]] (REQUEST)
r 1.050978104 _21_ RTR  --- 0 AODV 48 [0 ffffffff 16 800] ------- [22:255 -1:255 29 0] [0x2 2 1 [29 0] [36 4]] (REQUEST)
r 1.050978228 _14_ RTR  --- 0 AODV 48 [0 ffffffff 16 800] ------- [22:255 -1:255 29 0] [0x2 2 1 [29 0] [36 4]] (REQUEST)
r 1.050978228 _30_ RTR  --- 0 AODV 48 [0 ffffffff 16 800] ------- [22:255 -1:255 29 0] [0x2 2 1 [29 0] [36 4]] (REQUEST)
r 1.050978287 _15_ RTR  --- 0 AODV 48 [0 ffffffff 16 800] ------- [22:255 -1:255 29 0] [0x2 2 1 [29 0] [36 4]] (REQUEST)
r 1.050978287 _31_ RTR  --- 0 AODV 48 [0 ffffffff 16 800] ------- [22:255 -1:255 29 0] [0x2 2 1 [29 0] [36 4]] (REQUEST)
r 1.050978288 _13_ RTR  --- 0 AODV 48 [0 ffffffff 16 800] ------- [22:255 -1:255 29 0] [0x2 2 1 [29 0] [36 4]] (REQUEST)
r 1.050978592 _7_ RTR  --- 0 AODV 48 [0 ffffffff 16 800] ------- [22:255 -1:255 29 0] [0x2 2 1 [29 0] [36 4]] (REQUEST)
r 1.051148708 _26_ RTR  --- 0 AODV 48 [0 ffffffff 1b 800] ------- [27:255 -1:255 29 0] [0x2 2 1 [29 0] [36 4]] (REQUEST)
r 1.051148711 _28_ RTR  --- 0 AODV 48 [0 ffffffff 1b 800] ------- [27:255 -1:255 29 0] [0x2 2 1 [29 0] [36 4]] (REQUEST)
r 1.051148835 _19_ RTR  --- 0 AODV 48 [0 ffffffff 1b 800] ------- [27:255 -1:255 29 0] [0x2 2 1 [29 0] [36 4]] (REQUEST)
r 1.051148835 _35_ RTR  --- 0 AODV 48 [0 ffffffff 1b 800] ------- [27:255 -1:255 29 0] [0x2 2 1 [29 0] [36 4]] (REQUEST)
r 1.051148894 _18_ RTR  --- 0 AODV 48 [0 ffffffff 1b 800] ------- [27:255 -1:255 29 0] [0x2 2 1 [29 0] [36 4]] (REQUEST)
r 1.051148894 _34_ RTR  --- 0 AODV 48 [0 ffffffff 1b 800] ------- [27:255 -1:255 29 0] [0x2 2 1 [29 0] [36 4]] (REQUEST)
r 1.051148895 _36_ RTR  --- 0 AODV 48 [0 ffffffff 1b 800] ------- [27:255 -1:255 29 0] [0x2 2 1 [29 0] [36 4]] (REQUEST)
r 1.051148918 _25_ RTR  --- 0 AODV 48 [0 ffffffff 1b 800] ------- [27:255 -1:255 29 0] [0x2 2 1 [29 0] [36 4]] (REQUEST)
r 1.051149035 _17_ RTR  --- 0 AODV 48 [0 ffffffff 1b 800] ------- [27:255 -1:255 29 0] [0x2 2 1 [29 0] [36 4]] (REQUEST)
r 1.051149035 _33_ RTR  --- 0 AODV 48 [0 ffffffff 1b 800] ------- [27:255 -1:255 29 0] [0x2 2 1 [29 0] [36 4]] (REQUEST)
r 1.051149125 _24_ RTR  --- 0 AODV 48 [0 ffffffff 1b 800] ------- [27:255 -1:255 29 0] [0x2 2 1 [29 0] [36 4]] (REQUEST)
r 1.051149208 _32_ RTR  --- 0 AODV 48 [0 ffffffff 1b 800] ------- [27:255 -1:255 29 0] [0x2 2 1 [29 0] [36 4]] (REQUEST)
s 1.052340678 _16_ RTR  --- 0 AODV 48 [0 ffffffff 19 800] ------- [16:255 -1:255 28 0] [0x2 3 1 [29 0] [36 4]] (REQUEST)
s 1.052673435 _5_ RTR  --- 0 AODV 48 [0 ffffffff 14 800] ------- [5:255 -1:255 28 0] [0x2 3 1 [29 0] [36 4]] (REQUEST)
s 1.053094404 _6_ RTR  --- 0 AODV 48 [0 ffffffff 14 800] ------- [6:255 -1:255 28 0] [0x2 3 1 [29 0] [36 4]] (REQUEST)
s 1.053223013 _15_ RTR  --- 0 AODV 48 [0 ffffffff 14 800] ------- [15:255 -1:255 28 0] [0x2 3 1 [29 0] [36 4]] (REQUEST)
r 1.053466638 _15_ RTR  --- 0 AODV 48 [0 ffffffff e 800] ------- [14:255 -1:255 28 0] [0x2 3 1 [29 0] [36 4]] (REQUEST)
r 1.053466641 _13_ RTR  --- 0 AODV 48 [0 ffffffff e 800] ------- [14:255 -1:255 28 0] [0x2 3 1 [29 0] [36 4]] (REQUEST)
r 1.053466764 _6_ RTR  --- 0 AODV 48 [0 ffffffff e 800] ------- [14:255 -1:255 28 0] [0x2 3 1 [29 0] [36 4]] (REQUEST)
r 1.053466823 _7_ RTR  --- 0 AODV 48 [0 ffffffff e 800] ------- [14:255 -1:255 28 0] [0x2 3 1 [29 0] [36 4]] (REQUEST)
r 1.053466825 _5_ RTR  --- 0 AODV 48 [0 ffffffff e 800] ------- [14:255 -1:255 28 0] [0x2 3 1 [29 0] [36 4]] (REQUEST)
r 1.053466848 _12_ RTR  --- 0 AODV 48 [0 ffffffff e 800] ------- [14:255 -1:255 28 0] [0x2 3 1 [29 0] [36 4]] (REQUEST)
r 1.053466965 _4_ RTR  --- 0 AODV 48 [0 ffffffff e 800] ------- [14:255 -1:255 28 0] [0x2 3 1 [29 0] [36 4]] (REQUEST)
r 1.053540029 _31_ RTR  --- 0 AODV 48 [0 ffffffff 1e 800] ------- [30:255 -1:255 29 0] [0x2 2 1 [29 0] [36 4]] (REQUEST)
r 1.053540033 _29_ RTR  --- 0 AODV 48 [0 ffffffff 1e 800] ------- [30:255 -1:255 29 0] [0x2 2 1 [29 0] [36 4]] (REQUEST)
r 1.053540156 _38_ RTR  --- 0 AODV 48 [0 ffffffff 1e 800] ------- [30:255 -1:255 29 0] [0x2 2 1 [29 0] [36 4]] (REQUEST)
r 1.053540215 _39_ RTR  --- 0 AODV 48 [0 ffffffff 1e 800] ------- [30:255 -1:255 29 0] [0x2 2 1 [29 0] [36 4]] (REQUEST)
r 1.053540217 _37_ RTR  --- 0 AODV 48 [0 ffffffff 1e 800] ------- [30:255 -1:255 29 0] [0x2 2 1 [29 0] [36 4]] (REQUEST)
r 1.053540239 _28_ RTR  --- 0 AODV 48 [0 ffffffff 1e 800] ------- [30:255 -1:255 29 0] [0x2 2 1 [29 0] [36 4]] (REQUEST)
r 1.053540356 _36_ RTR  --- 0 AODV 48 [0 ffffffff 1e 800] ------- [30:255 -1:255 29 0] [0x2 2 1 [29 0] [36 4]] (REQUEST)
s 1.053939758 _13_ RTR  --- 0 AODV 48 [0 ffffffff 14 800] ------- [13:255 -1:255 28 0] [0x2 3 1 [29 0] [36 4]] (REQUEST)
s 1.056044501 _4_ RTR  --- 0 AODV 48 [0 ffffffff e 800] ------- [4:255 -1:255 27 0] [0x2 4 1 [29 0] [36 4]] (REQUEST)
r 1.056194338 _21_ RTR  --- 0 AODV 48 [0 ffffffff 14 800] ------- [20:255 -1:255 30 0] [0x2 1 1 [35 0] [20 4]] (REQUEST)
r 1.056194341 _19_ RTR  --- 0 AODV 48 [0 ffffffff 14 800] ------- [20:255 -1:255 30 0] [0x2 1 1 [35 0] [20 4]] (REQUEST)
r 1.056194464 _12_ RTR  --- 0 AODV 48 [0 ffffffff 14 800] ------- [20:255 -1:255 30 0] [0x2 1 1 [35 0] [20 4]] (REQUEST)
r 1.056194464 _28_ RTR  --- 0 AODV 48 [0 ffffffff 14 800] ------- [20:255 -1:255 30 0] [0x2 1 1 [35 0] [20 4]] (REQUEST)
r 1.056194523 _13_ RTR  --- 0 AODV 48 [0 ffffffff 14 800] ------- [20:255 -1:255 30 0] [0x2 1 1 [35 0] [20 4]] (REQUEST)
r 1.056194523 _29_ RTR  --- 0 AODV 48 [0 ffffffff 14 800] ------- [20:255 -1:255 30 0] [0x2 1 1 [35 0] [20 4]] (REQUEST)
r 1.056194525 _11_ RTR  --- 0 AODV 48 [0 ffffffff 14 800] ------- [20:255 -1:255 30 0] [0x2 1 1 [35 0] [20 4]] (REQUEST)
r 1.056194525 _27_ RTR  --- 0 AODV 48 [0 ffffffff 14 800] ------- [20:255 -1:255 30 0] [0x2 1 1 [35 0] [20 4]] (REQUEST)
r 1.056194548 _18_ RTR  --- 0 AODV 48 [0 ffffffff 14 800] ------- [20:255 -1:255 30 0] [0x2 1 1 [35 0] [20 4]] (REQUEST)
r 1.056194548 _22_ RTR  --- 0 AODV 48 [0 ffffffff 14 800] ------- [20:255 -1:255 30 0] [0x2 1 1 [35 0] [20 4]] (REQUEST)
r 1.056194665 _14_ RTR  --- 0 AODV 48 [0 ffffffff 14 800] ------- [20:255 -1:255 30 0] [0x2 1 1 [35 0] [20 4]] (REQUEST)
r 1.056194665 _10_ RTR  --- 0 AODV 48 [0 ffffffff 14 800] ------- [20:255 -1:255 30 0] [0x2 1 1 [35 0] [20 4]] (REQUEST)
r 1.056194665 _26_ RTR  --- 0 AODV 48 [0 ffffffff 14 800] ------- [20:255 -1:255 30 0] [0x2 1 1 [35 0] [20 4]] (REQUEST)
r 1.056194665 _30_ RTR  --- 0 AODV 48 [0 ffffffff 14 800] ------- [20:255 -1:255 30 0] [0x2 1 1 [35 0] [20 4]] (REQUEST)
r 1.056194754 _23_ RTR  --- 0 AODV 48 [0 ffffffff 14 800] ------- [20:255 -1:255 30 0] [0x2 1 1 [35 0] [20 4]] (REQUEST)
r 1.056194758 _17_ RTR  --- 0 AODV 48 [0 ffffffff 14 800] ------- [20:255 -1:255 30 0] [0x2 1 1 [35 0] [20 4]] (REQUEST)
r 1.056194798 _4_ RTR  --- 0 AODV 48 [0 ffffffff 14 800] ------- [20:255 -1:255 30 0] [0x2 1 1 [35 0] [20 4]] (REQUEST)
r 1.056194798 _36_ RTR  --- 0 AODV 48 [0 ffffffff 14 800] ------- [20:255 -1:255 30 0] [0x2 1 1 [35 0] [20 4]] (REQUEST)
r 1.056194829 _5_ RTR  --- 0 AODV 48 [0 ffffffff 14 800] ------- [20:255 -1:255 30 0] [0x2 1 1 [35 0] [20 4]] (REQUEST)
r 1.056194829 _37_ RTR  --- 0 AODV 48 [0 ffffffff 14 800] ------- [20:255 -1:255 30 0] [0x2 1 1 [35 0] [20 4]] (REQUEST)
r 1.056194830 _3_ RTR  --- 0 AODV 48 [0 ffffffff 14 800] ------- [20:255 -1:255 30 0] [0x2 1 1 [35 0] [20 4]] (REQUEST)
r 1.056194830 _35_ RTR  --- 0 AODV 48 [0 ffffffff 14 800] ------- [20:255 -1:255 30 0] [0x2 1 1 [35 0] [20 4]] (REQUEST)
s 1.056194830 _35_ RTR  --- 0 AODV 44 [0 0 0 0] ------- [35:255 20:255 30 20] [0x4 1 [35 4] 10.000000] (REPLY)
r 1.056194838 _15_ RTR  --- 0 AODV 48 [0 ffffffff 14 800] ------- [20:255 -1:255 30 0] [0x2 1 1 [35 0] [20 4]] (REQUEST)
r 1.056194838 _31_ RTR  --- 0 AODV 48 [0 ffffffff 14 800] ------- [20:255 -1:255 30 0] [0x2 1 1 [35 0] [20 4]] (REQUEST)
r 1.056194841 _9_ RTR  --- 0 AODV 48 [0 ffffffff 14 800] ------- [20:255 -1:255 30 0] [0x2 1 1 [35 0] [20 4]] (REQUEST)
r 1.056194841 _25_ RTR  --- 0 AODV 48 [0 ffffffff 14 800] ------- [20:255 -1:255 30 0] [0x2 1 1 [35 0] [20 4]] (REQUEST)
r 1.056194917 _6_ RTR  --- 0 AODV 48 [0 ffffffff 14 800] ------- [20:255 -1:255 30 0] [0x2 1 1 [35 0] [20 4]] (REQUEST)
r 1.056194917 _2_ RTR  --- 0 AODV 48 [0 ffffffff 14 800] ------- [20:255 -1:255 30 0] [0x2 1 1 [35 0] [20 4]] (REQUEST)
r 1.056194917 _34_ RTR  --- 0 AODV 48 [0 ffffffff 14 800] ------- [20:255 -1:255 30 0] [0x2 1 1 [35 0] [20 4]] (REQUEST)
r 1.056194917 _38_ RTR  --- 0 AODV 48 [0 ffffffff 14 800] ------- [20:255 -1:255 30 0] [0x2 1 1 [35 0] [20 4]] (REQUEST)
r 1.056194964 _16_ RTR  --- 0 AODV 48 [0 ffffffff 14 800] ------- [20:255 -1:255 30 0] [0x2 1 1 [35 0] [20 4]] (REQUEST)
s 1.056544878 _20_ AGT  --- 2 tcp 40 [0 0 0 0] ------- [20:3 5:1 32 0] [0 0] 0 0
r 1.056544878 _20_ RTR  --- 2 tcp 40 [0 0 0 0] ------- [20:3 5:1 32 0] [0 0] 0 0
s 1.056544878 _20_ RTR  --- 0 AODV 48 [0 0 0 0] ------- [20:255 -1:255 30 0] [0x2 1 2 [5 0] [20 6]] (REQUEST)
s 1.056828851 _17_ RTR  --- 0 AODV 48 [0 ffffffff 14 800] ------- [17:255 -1:255 29 0] [0x2 2 1 [35 0] [20 4]] (REQUEST)
s 1.057049112 _23_ RTR  --- 0 AODV 48 [0 ffffffff 14 800] ------- [23:255 -1:255 29 0] [0x2 2 1 [35 0] [20 4]] (REQUEST)
s 1.057515677 _22_ RTR  --- 0 AODV 48 [0 ffffffff 14 800] ------- [22:255 -1:255 29 0] [0x2 2 1 [35 0] [20 4]] (REQUEST)
s 1.057717091 _16_ RTR  --- 0 AODV 48 [0 ffffffff 14 800] ------- [16:255 -1:255 29 0] [0x2 2 1 [35 0] [20 4]] (REQUEST)
s 1.057742086 _34_ RTR  --- 0 AODV 48 [0 ffffffff 14 800] ------- [34:255 -1:255 29 0] [0x2 2 1 [35 0] [20 4]] (REQUEST)
s 1.058230491 _28_ RTR  --- 0 AODV 48 [0 ffffffff 14 800] ------- [28:255 -1:255 29 0] [0x2 2 1 [35 0] [20 4]] (REQUEST)
r 1.058422764 _25_ RTR  --- 0 AODV 48 [0 ffffffff 18 800] ------- [24:255 -1:255 28 0] [0x2 3 1 [29 0] [36 4]] (REQUEST)
r 1.058422891 _16_ RTR  --- 0 AODV 48 [0 ffffffff 18 800] ------- [24:255 -1:255 28 0] [0x2 3 1 [29 0] [36 4]] (REQUEST)
r 1.058422891 _32_ RTR  --- 0 AODV 48 [0 ffffffff 18 800] ------- [24:255 -1:255 28 0] [0x2 3 1 [29 0] [36 4]] (REQUEST)
r 1.058422950 _17_ RTR  --- 0 AODV 48 [0 ffffffff 18 800] ------- [24:255 -1:255 28 0] [0x2 3 1 [29 0] [36 4]] (REQUEST)
r 1.058422950 _33_ RTR  --- 0 AODV 48 [0 ffffffff 18 800] ------- [24:255 -1:255 28 0] [0x2 3 1 [29 0] [36 4]] (REQUEST)
r 1.058422974 _26_ RTR  --- 0 AODV 48 [0 ffffffff 18 800] ------- [24:255 -1:255 28 0] [0x2 3 1 [29 0] [36 4]] (REQUEST)
r 1.058423091 _18_ RTR  --- 0 AODV 48 [0 ffffffff 18 800] ------- [24:255 -1:255 28 0] [0x2 3 1 [29 0] [36 4]] (REQUEST)
r 1.058423091 _34_ RTR  --- 0 AODV 48 [0 ffffffff 18 800] ------- [24:255 -1:255 28 0] [0x2 3 1 [29 0] [36 4]] (REQUEST)
r 1.058423181 _27_ RTR  --- 0 AODV 48 [0 ffffffff 18 800] ------- [24:255 -1:255 28 0] [0x2 3 1 [29 0] [36 4]] (REQUEST)
r 1.058423224 _8_ RTR  --- 0 AODV 48 [0 ffffffff 18 800] ------- [24:255 -1:255 28 0] [0x2 3 1 [29 0] [36 4]] (REQUEST)
r 1.058423255 _9_ RTR  --- 0 AODV 48 [0 ffffffff 18 800] ------- [24:255 -1:255 28 0] [0x2 3 1 [29 0] [36 4]] (REQUEST)
r 1.058423264 _19_ RTR  --- 0 AODV 48 [0 ffffffff 18 800] ------- [24:255 -1:255 28 0] [0x2 3 1 [29 0] [36 4]] (REQUEST)
r 1.058423264 _35_ RTR  --- 0 AODV 48 [0 ffffffff 18 800] ------- [24:255 -1:255 28 0] [0x2 3 1 [29 0] [36 4]] (REQUEST)
r 1.058423344 _10_ RTR  --- 0 AODV 48 [0 ffffffff 18 800] ------- [24:255 -1:255 28 0] [0x2 3 1 [29 0] [36 4]] (REQUEST)
r 1.058423391 _28_ RTR  --- 0 AODV 48 [0 ffffffff 18 800] ------- [24:255 -1:255 28 0] [0x2 3 1 [29 0] [36 4]] (REQUEST)
s 1.058966740 _38_ RTR  --- 0 AODV 48 [0 ffffffff 14 800] ------- [38:255 -1:255 29 0] [0x2 2 1 [35 0] [20 4]] (REQUEST)
s 1.059005500 _5_ RTR  --- 0 AODV 48 [0 ffffffff 14 800] ------- [5:255 -1:255 29 0] [0x2 2 1 [35 0] [20 4]] (REQUEST)
s 1.059497040 _7_ RTR  --- 0 AODV 48 [0 ffffffff 16 800] ------- [7:255 -1:255 28 0] [0x2 3 1 [29 0] [36 4]] (REQUEST)
s 1.059816300 _29_ RTR  --- 0 AODV 48 [0 ffffffff 14 800] ------- [29:255 -1:255 29 0] [0x2 2 1 [35 0] [20 4]] (REQUEST)
s 1.060288101 _21_ RTR  --- 0 AODV 48 [0 ffffffff 14 800] ------- [21:255 -1:255 29 0] [0x2 2 1 [35 0] [20 4]] (REQUEST)
r 1.060723088 _19_ RTR  --- 0 AODV 48 [0 ffffffff 14 800] ------- [20:255 -1:255 30 0] [0x2 1 2 [5 0] [20 6]] (REQUEST)
r 1.060797884 _23_ RTR  --- 0 AODV 48 [0 ffffffff 16 800] ------- [22:255 -1:255 29 0] [0x2 2 1 [35 0] [20 4]] (REQUEST)
s 1.060799784 _30_ RTR  --- 0 AODV 48 [0 ffffffff 14 800] ------- [30:255 -1:255 29 0] [0x2 2 1 [35 0] [20 4]] (REQUEST)
s 1.061178760 _18_ RTR  --- 0 AODV 48 [0 ffffffff 14 800] ------- [18:255 -1:255 29 0] [0x2 2 1 [35 0] [20 4]] (REQUEST)
s 1.061226798 _25_ RTR  --- 0 AODV 48 [0 ffffffff 14 800] ------- [25:255 -1:255 29 0] [0x2 2 1 [35 0] [20 4]] (REQUEST)
s 1.061571936 _2_ RTR  --- 0 AODV 48 [0 ffffffff 14 800] ------- [2:255 -1:255 29 0] [0x2 2 1 [35 0] [20 4]] (REQUEST)
s 1.061628792 _15_ RTR  --- 0 AODV 48 [0 ffffffff 14 800] ------- [15:255 -1:255 29 0] [0x2 2 1 [35 0] [20 4]] (REQUEST)
s 1.061904809 _4_ RTR  --- 0 AODV 48 [0 ffffffff 14 800] ------- [4:255 -1:255 29 0] [0x2 2 1 [35 0] [20 4]] (REQUEST)
s 1.061961727 _33_ AGT  --- 3 tcp 40 [0 0 0 0] ------- [33:1 38:0 32 0] [0 0] 0 0
r 1.061961727 _33_ RTR  --- 3 tcp 40 [0 0 0 0] ------- [33:1 38:0 32 0] [0 0] 0 0
s 1.061961727 _33_ RTR  --- 0 AODV 48 [0 0 0 0] ------- [33:255 -1:255 30 0] [0x2 1 1 [38 0] [33 4]] (REQUEST)
s 1.062140275 _9_ RTR  --- 0 AODV 48 [0 ffffffff 18 800] ------- [9:255 -1:255 27 0] [0x2 4 1 [29 0] [36 4]] (REQUEST)
s 1.062145490 _37_ RTR  --- 0 AODV 48 [0 ffffffff 14 800] ------- [37:255 -1:255 29 0] [0x2 2 1 [35 0] [20 4]] (REQUEST)
s 1.062290385 _27_ RTR  --- 0 AODV 48 [0 ffffffff 14 800] ------- [27:255 -1:255 29 0] [0x2 2 1 [35 0] [20 4]] (REQUEST)
s 1.062787219 _6_ RTR  --- 0 AODV 48 [0 ffffffff 14 800] ------- [6:255 -1:255 29 0] [0x2 2 1 [35 0] [20 4]] (REQUEST)