s 1.106011134 _37_ AGT  --- 0 tcp 40 [0 0 0 0] ------- [37:0 17:0 32 0] [0 0] 0 0
r 1.106011134 _37_ RTR  --- 0 tcp 40 [0 0 0 0] ------- [37:0 17:0 32 0] [0 0] 0 0
s 1.106011134 _37_ RTR  --- 0 AODV 48 [0 0 0 0] ------- [37:255 -1:255 30 0] [0x2 1 1 [17 0] [37 4]] (REQUEST)
r 1.109933340 _36_ RTR  --- 0 AODV 48 [0 ffffffff 25 800] ------- [37:255 -1:255 30 0] [0x2 1 1 [17 0] [37 4]] (REQUEST)
r 1.109933344 _38_ RTR  --- 0 AODV 48 [0 ffffffff 25 800] ------- [37:255 -1:255 30 0] [0x2 1 1 [17 0] [37 4]] (REQUEST)
r 1.109933467 _29_ RTR  --- 0 AODV 48 [0 ffffffff 25 800] ------- [37:255 -1:255 30 0] [0x2 1 1 [17 0] [37 4]] (REQUEST)
r 1.109933526 _28_ RTR  --- 0 AODV 48 [0 ffffffff 25 800] ------- [37:255 -1:255 30 0] [0x2 1 1 [17 0] [37 4]] (REQUEST)
r 1.109933528 _30_ RTR  --- 0 AODV 48 [0 ffffffff 25 800] ------- [37:255 -1:255 30 0] [0x2 1 1 [17 0] [37 4]] (REQUEST)
r 1.109933550 _35_ RTR  --- 0 AODV 48 [0 ffffffff 25 800] ------- [37:255 -1:255 30 0] [0x2 1 1 [17 0] [37 4]] (REQUEST)
r 1.109933550 _39_ RTR  --- 0 AODV 48 [0 ffffffff 25 800] ------- [37:255 -1:255 30 0] [0x2 1 1 [17 0] [37 4]] (REQUEST)
r 1.109933667 _31_ RTR  --- 0 AODV 48 [0 ffffffff 25 800] ------- [37:255 -1:255 30 0] [0x2 1 1 [17 0] [37 4]] (REQUEST)
r 1.109933667 _27_ RTR  --- 0 AODV 48 [0 ffffffff 25 800] ------- [37:255 -1:255 30 0] [0x2 1 1 [17 0] [37 4]] (REQUEST)
r 1.109933757 _34_ RTR  --- 0 AODV 48 [0 ffffffff 25 800] ------- [37:255 -1:255 30 0] [0x2 1 1 [17 0] [37 4]] (REQUEST)
r 1.109933800 _21_ RTR  --- 0 AODV 48 [0 ffffffff 25 800] ------- [37:255 -1:255 30 0] [0x2 1 1 [17 0] [37 4]] (REQUEST)
r 1.109933832 _20_ RTR  --- 0 AODV 48 [0 ffffffff 25 800] ------- [37:255 -1:255 30 0] [0x2 1 1 [17 0] [37 4]] (REQUEST)
r 1.109933833 _22_ RTR  --- 0 AODV 48 [0 ffffffff 25 800] ------- [37:255 -1:255 30 0] [0x2 1 1 [17 0] [37 4]] (REQUEST)
r 1.109933840 _26_ RTR  --- 0 AODV 48 [0 ffffffff 25 800] ------- [37:255 -1:255 30 0] [0x2 1 1 [17 0] [37 4]] (REQUEST)
r 1.109933920 _23_ RTR  --- 0 AODV 48 [0 ffffffff 25 800] ------- [37:255 -1:255 30 0] [0x2 1 1 [17 0] [37 4]] (REQUEST)
r 1.109933920 _19_ RTR  --- 0 AODV 48 [0 ffffffff 25 800] ------- [37:255 -1:255 30 0] [0x2 1 1 [17 0] [37 4]] (REQUEST)
r 1.109933967 _33_ RTR  --- 0 AODV 48 [0 ffffffff 25 800] ------- [37:255 -1:255 30 0] [0x2 1 1 [17 0] [37 4]] (REQUEST)
s 1.110328792 _34_ RTR  --- 0 AODV 48 [0 ffffffff 25 800] ------- [34:255 -1:255 29 0] [0x2 2 1 [17 0] [37 4]] (REQUEST)
s 1.110520899 _23_ RTR  --- 0 AODV 48 [0 ffffffff 25 800] ------- [23:255 -1:255 29 0] [0x2 2 1 [17 0] [37 4]] (REQUEST)
s 1.110578440 _39_ RTR  --- 0 AODV 48 [0 ffffffff 25 800] ------- [39:255 -1:255 29 0] [0x2 2 1 [17 0] [37 4]] (REQUEST)
s 1.111518665 _30_ RTR  --- 0 AODV 48 [0 ffffffff 25 800] ------- [30:255 -1:255 29 0] [0x2 2 1 [17 0] [37 4]] (REQUEST)
s 1.111700515 _31_ RTR  --- 0 AODV 48 [0 ffffffff 25 800] ------- [31:255 -1:255 29 0] [0x2 2 1 [17 0] [37 4]] (REQUEST)
s 1.112202139 _22_ RTR  --- 0 AODV 48 [0 ffffffff 25 800] ------- [22:255 -1:255 29 0] [0x2 2 1 [17 0] [37 4]] (REQUEST)
s 1.112288957 _35_ RTR  --- 0 AODV 48 [0 ffffffff 25 800] ------- [35:255 -1:255 29 0] [0x2 2 1 [17 0] [37 4]] (REQUEST)
s 1.113333533 _19_ RTR  --- 0 AODV 48 [0 ffffffff 25 800] ------- [19:255 -1:255 29 0] [0x2 2 1 [17 0] [37 4]] (REQUEST)
r 1.113860647 _38_ RTR  --- 0 AODV 48 [0 ffffffff 27 800] ------- [39:255 -1:255 29 0] [0x2 2 1 [17 0] [37 4]] (REQUEST)
r 1.113860774 _31_ RTR  --- 0 AODV 48 [0 ffffffff 27 800] ------- [39:255 -1:255 29 0] [0x2 2 1 [17 0] [37 4]] (REQUEST)
r 1.113860833 _30_ RTR  --- 0 AODV 48 [0 ffffffff 27 800] ------- [39:255 -1:255 29 0] [0x2 2 1 [17 0] [37 4]] (REQUEST)
r 1.113860857 _37_ RTR  --- 0 AODV 48 [0 ffffffff 27 800] ------- [39:255 -1:255 29 0] [0x2 2 1 [17 0] [37 4]] (REQUEST)
r 1.113860974 _29_ RTR  --- 0 AODV 48 [0 ffffffff 27 800] ------- [39:255 -1:255 29 0] [0x2 2 1 [17 0] [37 4]] (REQUEST)
r 1.113861064 _36_ RTR  --- 0 AODV 48 [0 ffffffff 27 800] ------- [39:255 -1:255 29 0] [0x2 2 1 [17 0] [37 4]] (REQUEST)
r 1.113861107 _23_ RTR  --- 0 AODV 48 [0 ffffffff 27 800] ------- [39:255 -1:255 29 0] [0x2 2 1 [17 0] [37 4]] (REQUEST)
r 1.113861138 _22_ RTR  --- 0 AODV 48 [0 ffffffff 27 800] ------- [39:255 -1:255 29 0] [0x2 2 1 [17 0] [37 4]] (REQUEST)
r 1.113861147 _28_ RTR  --- 0 AODV 48 [0 ffffffff 27 800] ------- [39:255 -1:255 29 0] [0x2 2 1 [17 0] [37 4]] (REQUEST)
r 1.113861227 _21_ RTR  --- 0 AODV 48 [0 ffffffff 27 800] ------- [39:255 -1:255 29 0] [0x2 2 1 [17 0] [37 4]] (REQUEST)
r 1.113861274 _35_ RTR  --- 0 AODV 48 [0 ffffffff 27 800] ------- [39:255 -1:255 29 0] [0x2 2 1 [17 0] [37 4]] (REQUEST)
s 1.114781081 _36_ RTR  --- 0 AODV 48 [0 ffffffff 25 800] ------- [36:255 -1:255 29 0] [0x2 2 1 [17 0] [37 4]] (REQUEST)
s 1.115718813 _21_ RTR  --- 0 AODV 48 [0 ffffffff 25 800] ------- [21:255 -1:255 29 0] [0x2 2 1 [17 0] [37 4]] (REQUEST)
r 1.116124346 _23_ RTR  --- 0 AODV 48 [0 ffffffff 16 800] ------- [22:255 -1:255 29 0] [0x2 2 1 [17 0] [37 4]] (REQUEST)
r 1.116124349 _21_ RTR  --- 0 AODV 48 [0 ffffffff 16 800] ------- [22:255 -1:255 29 0] [0x2 2 1 [17 0] [37 4]] (REQUEST)
r 1.116124473 _14_ RTR  --- 0 AODV 48 [0 ffffffff 16 800] ------- [22:255 -1:255 29 0] [0x2 2 1 [17 0] [37 4]] (REQUEST)
r 1.116124473 _30_ RTR  --- 0 AODV 48 [0 ffffffff 16 800] ------- [22:255 -1:255 29 0] [0x2 2 1 [17 0] [37 4]] (REQUEST)
r 1.116124532 _15_ RTR  --- 0 AODV 48 [0 ffffffff 16 800] ------- [22:255 -1:255 29 0] [0x2 2 1 [17 0] [37 4]] (REQUEST)
r 1.116124532 _31_ RTR  --- 0 AODV 48 [0 ffffffff 16 800] ------- [22:255 -1:255 29 0] [0x2 2 1 [17 0] [37 4]] (REQUEST)
r 1.116124533 _13_ RTR  --- 0 AODV 48 [0 ffffffff 16 800] ------- [22:255 -1:255 29 0] [0x2 2 1 [17 0] [37 4]] (REQUEST)
r 1.116124533 _29_ RTR  --- 0 AODV 48 [0 ffffffff 16 800] ------- [22:255 -1:255 29 0] [0x2 2 1 [17 0] [37 4]] (REQUEST)
r 1.116124556 _20_ RTR  --- 0 AODV 48 [0 ffffffff 16 800] ------- [22:255 -1:255 29 0] [0x2 2 1 [17 0] [37 4]] (REQUEST)
r 1.116124673 _12_ RTR  --- 0 AODV 48 [0 ffffffff 16 800] ------- [22:255 -1:255 29 0] [0x2 2 1 [17 0] [37 4]] (REQUEST)
r 1.116124673 _28_ RTR  --- 0 AODV 48 [0 ffffffff 16 800] ------- [22:255 -1:255 29 0] [0x2 2 1 [17 0] [37 4]] (REQUEST)
r 1.116124766 _19_ RTR  --- 0 AODV 48 [0 ffffffff 16 800] ------- [22:255 -1:255 29 0] [0x2 2 1 [17 0] [37 4]] (REQUEST)
r 1.116124806 _6_ RTR  --- 0 AODV 48 [0 ffffffff 16 800] ------- [22:255 -1:255 29 0] [0x2 2 1 [17 0] [37 4]] (REQUEST)
r 1.116124806 _38_ RTR  --- 0 AODV 48 [0 ffffffff 16 800] ------- [22:255 -1:255 29 0] [0x2 2 1 [17 0] [37 4]] (REQUEST)
r 1.116124837 _7_ RTR  --- 0 AODV 48 [0 ffffffff 16 800] ------- [22:255 -1:255 29 0] [0x2 2 1 [17 0] [37 4]] (REQUEST)
r 1.116124837 _39_ RTR  --- 0 AODV 48 [0 ffffffff 16 800] ------- [22:255 -1:255 29 0] [0x2 2 1 [17 0] [37 4]] (REQUEST)
r 1.116124838 _5_ RTR  --- 0 AODV 48 [0 ffffffff 16 800] ------- [22:255 -1:255 29 0] [0x2 2 1 [17 0] [37 4]] (REQUEST)
r 1.116124838 _37_ RTR  --- 0 AODV 48 [0 ffffffff 16 800] ------- [22:255 -1:255 29 0] [0x2 2 1 [17 0] [37 4]] (REQUEST)
r 1.116124849 _11_ RTR  --- 0 AODV 48 [0 ffffffff 16 800] ------- [22:255 -1:255 29 0] [0x2 2 1 [17 0] [37 4]] (REQUEST)
r 1.116124849 _27_ RTR  --- 0 AODV 48 [0 ffffffff 16 800] ------- [22:255 -1:255 29 0] [0x2 2 1 [17 0] [37 4]] (REQUEST)
r 1.116124926 _4_ RTR  --- 0 AODV 48 [0 ffffffff 16 800] ------- [22:255 -1:255 29 0] [0x2 2 1 [17 0] [37 4]] (REQUEST)
r 1.116124926 _36_ RTR  --- 0 AODV 48 [0 ffffffff 16 800] ------- [22:255 -1:255 29 0] [0x2 2 1 [17 0] [37 4]] (REQUEST)
r 1.116124973 _18_ RTR  --- 0 AODV 48 [0 ffffffff 16 800] ------- [22:255 -1:255 29 0] [0x2 2 1 [17 0] [37 4]] (REQUEST)
s 1.116162366 _29_ RTR  --- 0 AODV 48 [0 ffffffff 25 800] ------- [29:255 -1:255 29 0] [0x2 2 1 [17 0] [37 4]] (REQUEST)
s 1.116995913 _20_ RTR  --- 0 AODV 48 [0 ffffffff 25 800] ------- [20:255 -1:255 29 0] [0x2 2 1 [17 0] [37 4]] (REQUEST)
s 1.117743398 _5_ RTR  --- 0 AODV 48 [0 ffffffff 16 800] ------- [5:255 -1:255 28 0] [0x2 3 1 [17 0] [37 4]] (REQUEST)
s 1.117874347 _33_ RTR  --- 0 AODV 48 [0 ffffffff 25 800] ------- [33:255 -1:255 29 0] [0x2 2 1 [17 0] [37 4]] (REQUEST)
s 1.118183498 _12_ RTR  --- 0 AODV 48 [0 ffffffff 16 800] ------- [12:255 -1:255 28 0] [0x2 3 1 [17 0] [37 4]] (REQUEST)
s 1.118236253 _26_ RTR  --- 0 AODV 48 [0 ffffffff 25 800] ------- [26:255 -1:255 29 0] [0x2 2 1 [17 0] [37 4]] (REQUEST)
s 1.118441354 _28_ RTR  --- 0 AODV 48 [0 ffffffff 25 800] ------- [28:255 -1:255 29 0] [0x2 2 1 [17 0] [37 4]] (REQUEST)
r 1.118448871 _31_ RTR  --- 0 AODV 48 [0 ffffffff 1e 800] ------- [30:255 -1:255 29 0] [0x2 2 1 [17 0] [37 4]] (REQUEST)
r 1.118448875 _29_ RTR  --- 0 AODV 48 [0 ffffffff 1e 800] ------- [30:255 -1:255 29 0] [0x2 2 1 [17 0] [37 4]] (REQUEST)
r 1.118448998 _22_ RTR  --- 0 AODV 48 [0 ffffffff 1e 800] ------- [30:255 -1:255 29 0] [0x2 2 1 [17 0] [37 4]] (REQUEST)
r 1.118448998 _38_ RTR  --- 0 AODV 48 [0 ffffffff 1e 800] ------- [30:255 -1:255 29 0] [0x2 2 1 [17 0] [37 4]] (REQUEST)
r 1.118449057 _23_ RTR  --- 0 AODV 48 [0 ffffffff 1e 800] ------- [30:255 -1:255 29 0] [0x2 2 1 [17 0] [37 4]] (REQUEST)
r 1.118449057 _39_ RTR  --- 0 AODV 48 [0 ffffffff 1e 800] ------- [30:255 -1:255 29 0] [0x2 2 1 [17 0] [37 4]] (REQUEST)
r 1.118449059 _21_ RTR  --- 0 AODV 48 [0 ffffffff 1e 800] ------- [30:255 -1:255 29 0] [0x2 2 1 [17 0] [37 4]] (REQUEST)
r 1.118449363 _15_ RTR  --- 0 AODV 48 [0 ffffffff 1e 800] ------- [30:255 -1:255 29 0] [0x2 2 1 [17 0] [37 4]] (REQUEST)
r 1.118579164 _34_ RTR  --- 0 AODV 48 [0 ffffffff 23 800] ------- [35:255 -1:255 29 0] [0x2 2 1 [17 0] [37 4]] (REQUEST)
r 1.118579167 _36_ RTR  --- 0 AODV 48 [0 ffffffff 23 800] ------- [35:255 -1:255 29 0] [0x2 2 1 [17 0] [37 4]] (REQUEST)
r 1.118579290 _27_ RTR  --- 0 AODV 48 [0 ffffffff 23 800] ------- [35:255 -1:255 29 0] [0x2 2 1 [17 0] [37 4]] (REQUEST)
r 1.118579349 _26_ RTR  --- 0 AODV 48 [0 ffffffff 23 800] ------- [35:255 -1:255 29 0] [0x2 2 1 [17 0] [37 4]] (REQUEST)
r 1.118579374 _33_ RTR  --- 0 AODV 48 [0 ffffffff 23 800] ------- [35:255 -1:255 29 0] [0x2 2 1 [17 0] [37 4]] (REQUEST)
r 1.118579491 _25_ RTR  --- 0 AODV 48 [0 ffffffff 23 800] ------- [35:255 -1:255 29 0] [0x2 2 1 [17 0] [37 4]] (REQUEST)
r 1.118579580 _32_ RTR  --- 0 AODV 48 [0 ffffffff 23 800] ------- [35:255 -1:255 29 0] [0x2 2 1 [17 0] [37 4]] (REQUEST)
s 1.118647115 _27_ RTR  --- 0 AODV 48 [0 ffffffff 25 800] ------- [27:255 -1:255 29 0] [0x2 2 1 [17 0] [37 4]] (REQUEST)
s 1.118753082 _14_ RTR  --- 0 AODV 48 [0 ffffffff 16 800] ------- [14:255 -1:255 28 0] [0x2 3 1 [17 0] [37 4]] (REQUEST)
s 1.118772333 _11_ RTR  --- 0 AODV 48 [0 ffffffff 16 800] ------- [11:255 -1:255 28 0] [0x2 3 1 [17 0] [37 4]] (REQUEST)
s 1.118901352 _38_ RTR  --- 0 AODV 48 [0 ffffffff 25 800] ------- [38:255 -1:255 29 0] [0x2 2 1 [17 0] [37 4]] (REQUEST)
s 1.119911299 _4_ RTR  --- 0 AODV 48 [0 ffffffff 16 800] ------- [4:255 -1:255 28 0] [0x2 3 1 [17 0] [37 4]] (REQUEST)
r 1.120852572 _28_ RTR  --- 0 AODV 48 [0 ffffffff 1d 800] ------- [29:255 -1:255 29 0] [0x2 2 1 [17 0] [37 4]] (REQUEST)
r 1.120852576 _30_ RTR  --- 0 AODV 48 [0 ffffffff 1d 800] ------- [29:255 -1:255 29 0] [0x2 2 1 [17 0] [37 4]] (REQUEST)
r 1.120852699 _21_ RTR  --- 0 AODV 48 [0 ffffffff 1d 800] ------- [29:255 -1:255 29 0] [0x2 2 1 [17 0] [37 4]] (REQUEST)
r 1.120852699 _37_ RTR  --- 0 AODV 48 [0 ffffffff 1d 800] ------- [29:255 -1:255 29 0] [0x2 2 1 [17 0] [37 4]] (REQUEST)
r 1.120852758 _20_ RTR  --- 0 AODV 48 [0 ffffffff 1d 800] ------- [29:255 -1:255 29 0] [0x2 2 1 [17 0] [37 4]] (REQUEST)
r 1.120852758 _36_ RTR  --- 0 AODV 48 [0 ffffffff 1d 800] ------- [29:255 -1:255 29 0] [0x2 2 1 [17 0] [37 4]] (REQUEST)
r 1.120852760 _22_ RTR  --- 0 AODV 48 [0 ffffffff 1d 800] ------- [29:255 -1:255 29 0] [0x2 2 1 [17 0] [37 4]] (REQUEST)
r 1.120852760 _38_ RTR  --- 0 AODV 48 [0 ffffffff 1d 800] ------- [29:255 -1:255 29 0] [0x2 2 1 [17 0] [37 4]] (REQUEST)
r 1.120852782 _27_ RTR  --- 0 AODV 48 [0 ffffffff 1d 800] ------- [29:255 -1:255 29 0] [0x2 2 1 [17 0] [37 4]] (REQUEST)
r 1.120852782 _31_ RTR  --- 0 AODV 48 [0 ffffffff 1d 800] ------- [29:255 -1:255 29 0] [0x2 2 1 [17 0] [37 4]] (REQUEST)
r 1.120852899 _23_ RTR  --- 0 AODV 48 [0 ffffffff 1d 800] ------- [29:255 -1:255 29 0] [0x2 2 1 [17 0] [37 4]] (REQUEST)
r 1.120852899 _19_ RTR  --- 0 AODV 48 [0 ffffffff 1d 800] ------- [29:255 -1:255 29 0] [0x2 2 1 [17 0] [37 4]] (REQUEST)
r 1.120852899 _35_ RTR  --- 0 AODV 48 [0 ffffffff 1d 800] ------- [29:255 -1:255 29 0] [0x2 2 1 [17 0] [37 4]] (REQUEST)
r 1.120852899 _39_ RTR  --- 0 AODV 48 [0 ffffffff 1d 800] ------- [29:255 -1:255 29 0] [0x2 2 1 [17 0] [37 4]] (REQUEST)
r 1.120852989 _26_ RTR  --- 0 AODV 48 [0 ffffffff 1d 800] ------- [29:255 -1:255 29 0] [0x2 2 1 [17 0] [37 4]] (REQUEST)
r 1.120853032 _13_ RTR  --- 0 AODV 48 [0 ffffffff 1d 800] ------- [29:255 -1:255 29 0] [0x2 2 1 [17 0] [37 4]] (REQUEST)
r 1.120853064 _12_ RTR  --- 0 AODV 48 [0 ffffffff 1d 800] ------- [29:255 -1:255 29 0] [0x2 2 1 [17 0] [37 4]] (REQUEST)
r 1.120853065 _14_ RTR  --- 0 AODV 48 [0 ffffffff 1d 800] ------- [29:255 -1:255 29 0] [0x2 2 1 [17 0] [37 4]] (REQUEST)
r 1.120853073 _18_ RTR  --- 0 AODV 48 [0 ffffffff 1d 800] ------- [29:255 -1:255 29 0] [0x2 2 1 [17 0] [37 4]] (REQUEST)
r 1.120853073 _34_ RTR  --- 0 AODV 48 [0 ffffffff 1d 800] ------- [29:255 -1:255 29 0] [0x2 2 1 [17 0] [37 4]] (REQUEST)
r 1.120853152 _15_ RTR  --- 0 AODV 48 [0 ffffffff 1d 800] ------- [29:255 -1:255 29 0] [0x2 2 1 [17 0] [37 4]] (REQUEST)
r 1.120853152 _11_ RTR  --- 0 AODV 48 [0 ffffffff 1d 800] ------- [29:255 -1:255 29 0] [0x2 2 1 [17 0] [37 4]] (REQUEST)
r 1.120853199 _25_ RTR  --- 0 AODV 48 [0 ffffffff 1d 800] ------- [29:255 -1:255 29 0] [0x2 2 1 [17 0] [37 4]] (REQUEST)
s 1.120919693 _15_ RTR  --- 0 AODV 48 [0 ffffffff 16 800] ------- [15:255 -1:255 28 0] [0x2 3 1 [17 0] [37 4]] (REQUEST)
s 1.122242255 _18_ RTR  --- 0 AODV 48 [0 ffffffff 16 800] ------- [18:255 -1:255 28 0] [0x2 3 1 [17 0] [37 4]] (REQUEST)
s 1.122697402 _7_ RTR  --- 0 AODV 48 [0 ffffffff 16 800] ------- [7:255 -1:255 28 0] [0x2 3 1 [17 0] [37 4]] (REQUEST)
s 1.122878582 _6_ RTR  --- 0 AODV 48 [0 ffffffff 16 800] ------- [6:255 -1:255 28 0] [0x2 3 1 [17 0] [37 4]] (REQUEST)
r 1.123083002 _33_ RTR  --- 0 AODV 48 [0 ffffffff 22 800] ------- [34:255 -1:255 29 0] [0x2 2 1 [17 0] [37 4]] (REQUEST)
r 1.123209325 _28_ RTR  --- 0 AODV 48 [0 ffffffff 1b 800] ------- [27:255 -1:255 29 0] [0x2 2 1 [17 0] [37 4]] (REQUEST)
s 1.123621465 _13_ RTR  --- 0 AODV 48 [0 ffffffff 16 800] ------- [13:255 -1:255 28 0] [0x2 3 1 [17 0] [37 4]] (REQUEST)
r 1.125337839 _13_ RTR  --- 0 AODV 48 [0 ffffffff c 800] ------- [12:255 -1:255 28 0] [0x2 3 1 [17 0] [37 4]] (REQUEST)
r 1.125337842 _11_ RTR  --- 0 AODV 48 [0 ffffffff c 800] ------- [12:255 -1:255 28 0] [0x2 3 1 [17 0] [37 4]] (REQUEST)
r 1.125337965 _4_ RTR  --- 0 AODV 48 [0 ffffffff c 800] ------- [12:255 -1:255 28 0] [0x2 3 1 [17 0] [37 4]] (REQUEST)
r 1.125337965 _20_ RTR  --- 0 AODV 48 [0 ffffffff c 800] ------- [12:255 -1:255 28 0] [0x2 3 1 [17 0] [37 4]] (REQUEST)
r 1.125338024 _5_ RTR  --- 0 AODV 48 [0 ffffffff c 800] ------- [12:255 -1:255 28 0] [0x2 3 1 [17 0] [37 4]] (REQUEST)
r 1.125338024 _21_ RTR  --- 0 AODV 48 [0 ffffffff c 800] ------- [12:255 -1:255 28 0] [0x2 3 1 [17 0] [37 4]] (REQUEST)
r 1.125338026 _3_ RTR  --- 0 AODV 48 [0 ffffffff c 800] ------- [12:255 -1:255 28 0] [0x2 3 1 [17 0] [37 4]] (REQUEST)
r 1.125338026 _19_ RTR  --- 0 AODV 48 [0 ffffffff c 800] ------- [12:255 -1:255 28 0] [0x2 3 1 [17 0] [37 4]] (REQUEST)
r 1.125338049 _10_ RTR  --- 0 AODV 48 [0 ffffffff c 800] ------- [12:255 -1:255 28 0] [0x2 3 1 [17 0] [37 4]] (REQUEST)
r 1.125338049 _14_ RTR  --- 0 AODV 48 [0 ffffffff c 800] ------- [12:255 -1:255 28 0] [0x2 3 1 [17 0] [37 4]] (REQUEST)
r 1.125338166 _6_ RTR  --- 0 AODV 48 [0 ffffffff c 800] ------- [12:255 -1:255 28 0] [0x2 3 1 [17 0] [37 4]] (REQUEST)
r 1.125338166 _2_ RTR  --- 0 AODV 48 [0 ffffffff c 800] ------- [12:255 -1:255 28 0] [0x2 3 1 [17 0] [37 4]] (REQUEST)
r 1.125338166 _18_ RTR  --- 0 AODV 48 [0 ffffffff c 800] ------- [12:255 -1:255 28 0] [0x2 3 1 [17 0] [37 4]] (REQUEST)
r 1.125338166 _22_ RTR  --- 0 AODV 48 [0 ffffffff c 800] ------- [12:255 -1:255 28 0] [0x2 3 1 [17 0] [37 4]] (REQUEST)
r 1.125338255 _15_ RTR  --- 0 AODV 48 [0 ffffffff c 800] ------- [12:255 -1:255 28 0] [0x2 3 1 [17 0] [37 4]] (REQUEST)
r 1.125338259 _9_ RTR  --- 0 AODV 48 [0 ffffffff c 800] ------- [12:255 -1:255 28 0] [0x2 3 1 [17 0] [37 4]] (REQUEST)
r 1.125338299 _28_ RTR  --- 0 AODV 48 [0 ffffffff c 800] ------- [12:255 -1:255 28 0] [0x2 3 1 [17 0] [37 4]] (REQUEST)
r 1.125338330 _29_ RTR  --- 0 AODV 48 [0 ffffffff c 800] ------- [12:255 -1:255 28 0] [0x2 3 1 [17 0] [37 4]] (REQUEST)
r 1.125338339 _7_ RTR  --- 0 AODV 48 [0 ffffffff c 800] ------- [12:255 -1:255 28 0] [0x2 3 1 [17 0] [37 4]] (REQUEST)
r 1.125338339 _23_ RTR  --- 0 AODV 48 [0 ffffffff c 800] ------- [12:255 -1:255 28 0] [0x2 3 1 [17 0] [37 4]] (REQUEST)
r 1.125338342 _1_ RTR  --- 0 AODV 48 [0 ffffffff c 800] ------- [12:255 -1:255 28 0] [0x2 3 1 [17 0] [37 4]] (REQUEST)
r 1.125338342 _17_ RTR  --- 0 AODV 48 [0 ffffffff c 800] ------- [12:255 -1:255 28 0] [0x2 3 1 [17 0] [37 4]] (REQUEST)
s 1.125338342 _17_ RTR  --- 0 AODV 44 [0 0 0 0] ------- [17:255 37:255 30 12] [0x4 1 [17 4] 10.000000] (REPLY)
r 1.125338418 _26_ RTR  --- 0 AODV 48 [0 ffffffff c 800] ------- [12:255 -1:255 28 0] [0x2 3 1 [17 0] [37 4]] (REQUEST)
r 1.125338418 _30_ RTR  --- 0 AODV 48 [0 ffffffff c 800] ------- [12:255 -1:255 28 0] [0x2 3 1 [17 0] [37 4]] (REQUEST)
r 1.125338465 _8_ RTR  --- 0 AODV 48 [0 ffffffff c 800] ------- [12:255 -1:255 28 0] [0x2 3 1 [17 0] [37 4]] (REQUEST)
s 1.125663101 _32_ RTR  --- 0 AODV 48 [0 ffffffff 23 800] ------- [32:255 -1:255 28 0] [0x2 3 1 [17 0] [37 4]] (REQUEST)
s 1.125693364 _3_ RTR  --- 0 AODV 48 [0 ffffffff c 800] ------- [3:255 -1:255 27 0] [0x2 4 1 [17 0] [37 4]] (REQUEST)
s 1.126405439 _25_ AGT  --- 1 tcp 40 [0 0 0 0] ------- [25:0 16:0 32 0] [0 0] 0 0
r 1.126405439 _25_ RTR  --- 1 tcp 40 [0 0 0 0] ------- [25:0 16:0 32 0] [0 0] 0 0
s 1.126405439 _25_ RTR  --- 0 AODV 48 [0 0 0 0] ------- [25:255 -1:255 30 0] [0x2 1 1 [16 0] [25 4]] (REQUEST)
s 1.126642526 _8_ RTR  --- 0 AODV 48 [0 ffffffff c 800] ------- [8:255 -1:255 27 0] [0x2 4 1 [17 0] [37 4]] (REQUEST)
s 1.126801600 _25_ RTR  --- 0 AODV 48 [0 ffffffff 23 800] ------- [25:255 -1:255 28 0] [0x2 3 1 [17 0] [37 4]] (REQUEST)
s 1.126835159 _2_ RTR  --- 0 AODV 48 [0 ffffffff c 800] ------- [2:255 -1:255 27 0] [0x2 4 1 [17 0] [37 4]] (REQUEST)
r 1.127627106 _22_ RTR  --- 0 AODV 48 [0 ffffffff 17 800] ------- [23:255 -1:255 29 0] [0x2 2 1 [17 0] [37 4]] (REQUEST)
r 1.127627232 _15_ RTR  --- 0 AODV 48 [0 ffffffff 17 800] ------- [23:255 -1:255 29 0] [0x2 2 1 [17 0] [37 4]] (REQUEST)
r 1.127627232 _31_ RTR  --- 0 AODV 48 [0 ffffffff 17 800] ------- [23:255 -1:255 29 0] [0x2 2 1 [17 0] [37 4]] (REQUEST)
r 1.127627291 _14_ RTR  --- 0 AODV 48 [0 ffffffff 17 800] ------- [23:255 -1:255 29 0] [0x2 2 1 [17 0] [37 4]] (REQUEST)
r 1.127627432 _13_ RTR  --- 0 AODV 48 [0 ffffffff 17 800] ------- [23:255 -1:255 29 0] [0x2 2 1 [17 0] [37 4]] (REQUEST)
r 1.127627566 _7_ RTR  --- 0 AODV 48 [0 ffffffff 17 800] ------- [23:255 -1:255 29 0] [0x2 2 1 [17 0] [37 4]] (REQUEST)
r 1.127627597 _6_ RTR  --- 0 AODV 48 [0 ffffffff 17 800] ------- [23:255 -1:255 29 0] [0x2 2 1 [17 0] [37 4]] (REQUEST)
r 1.127727288 _37_ RTR  --- 0 AODV 48 [0 ffffffff 24 800] ------- [36:255 -1:255 29 0] [0x2 2 1 [17 0] [37 4]] (REQUEST)
r 1.127727291 _35_ RTR  --- 0 AODV 48 [0 ffffffff 24 800] ------- [36:255 -1:255 29 0] [0x2 2 1 [17 0] [37 4]] (REQUEST)
r 1.127727414 _28_ RTR  --- 0 AODV 48 [0 ffffffff 24 800] ------- [36:255 -1:255 29 0] [0x2 2 1 [17 0] [37 4]] (REQUEST)
r 1.127727475 _27_ RTR  --- 0 AODV 48 [0 ffffffff 24 800] ------- [36:255 -1:255 29 0] [0x2 2 1 [17 0] [37 4]] (REQUEST)
r 1.127727498 _34_ RTR  --- 0 AODV 48 [0 ffffffff 24 800] ------- [36:255 -1:255 29 0] [0x2 2 1 [17 0] [37 4]] (REQUEST)
r 1.127727615 _26_ RTR  --- 0 AODV 48 [0 ffffffff 24 800] ------- [36:255 -1:255 29 0] [0x2 2 1 [17 0] [37 4]] (REQUEST)
r 1.127727708 _33_ RTR  --- 0 AODV 48 [0 ffffffff 24 800] ------- [36:255 -1:255 29 0] [0x2 2 1 [17 0] [37 4]] (REQUEST)
r 1.127727791 _25_ RTR  --- 0 AODV 48 [0 ffffffff 24 800] ------- [36:255 -1:255 29 0] [0x2 2 1 [17 0] [37 4]] (REQUEST)
r 1.127727914 _32_ RTR  --- 0 AODV 48 [0 ffffffff 24 800] ------- [36:255 -1:255 29 0] [0x2 2 1 [17 0] [37 4]] (REQUEST)
s 1.127838335 _5_ AGT  --- 2 tcp 40 [0 0 0 0] ------- [5:0 22:0 32 0] [0 0] 0 0
r 1.127838335 _5_ RTR  --- 2 tcp 40 [0 0 0 0] ------- [5:0 22:0 32 0] [0 0] 0 0
s 1.127838335 _5_ RTR  --- 0 AODV 48 [0 0 0 0] ------- [5:255 -1:255 30 0] [0x2 1 1 [22 0] [5 4]] (REQUEST)
s 1.129785674 _9_ RTR  --- 0 AODV 48 [0 ffffffff c 800] ------- [9:255 -1:255 27 0] [0x2 4 1 [17 0] [37 4]] (REQUEST)
r 1.130327646 _24_ RTR  --- 0 AODV 48 [0 ffffffff 19 800] ------- [25:255 -1:255 30 0] [0x2 1 1 [16 0] [25 4]] (REQUEST)
r 1.130327649 _26_ RTR  --- 0 AODV 48 [0 ffffffff 19 800] ------- [25:255 -1:255 30 0] [0x2 1 1 [16 0] [25 4]] (REQUEST)
r 1.130327773 _17_ RTR  --- 0 AODV 48 [0 ffffffff 19 800] ------- [25:255 -1:255 30 0] [0x2 1 1 [16 0] [25 4]] (REQUEST)
r 1.130327773 _33_ RTR  --- 0 AODV 48 [0 ffffffff 19 800] ------- [25:255 -1:255 30 0] [0x2 1 1 [16 0] [25 4]] (REQUEST)
r 1.130327831 _16_ RTR  --- 0 AODV 48 [0 ffffffff 19 800] ------- [25:255 -1:255 30 0] [0x2 1 1 [16 0] [25 4]] (REQUEST)
r 1.130327831 _32_ RTR  --- 0 AODV 48 [0 ffffffff 19 800] ------- [25:255 -1:255 30 0] [0x2 1 1 [16 0] [25 4]] (REQUEST)
s 1.130327831 _16_ RTR  --- 0 AODV 44 [0 0 0 0] ------- [16:255 25:255 30 25] [0x4 1 [16 4] 10.000000] (REPLY)
r 1.130327833 _34_ RTR  --- 0 AODV 48 [0 ffffffff 19 800] ------- [25:255 -1:255 30 0] [0x2 1 1 [16 0] [25 4]] (REQUEST)
r 1.130327856 _27_ RTR  --- 0 AODV 48 [0 ffffffff 19 800] ------- [25:255 -1:255 30 0] [0x2 1 1 [16 0] [25 4]] (REQUEST)
r 1.130327973 _35_ RTR  --- 0 AODV 48 [0 ffffffff 19 800] ------- [25:255 -1:255 30 0] [0x2 1 1 [16 0] [25 4]] (REQUEST)
r 1.130328149 _36_ RTR  --- 0 AODV 48 [0 ffffffff 19 800] ------- [25:255 -1:255 30 0] [0x2 1 1 [16 0] [25 4]] (REQUEST)
r 1.130437366 _3_ RTR  --- 0 AODV 48 [0 ffffffff 2 800] ------- [2:255 -1:255 27 0] [0x2 4 1 [17 0] [37 4]] (REQUEST)
r 1.130437369 _1_ RTR  --- 0 AODV 48 [0 ffffffff 2 800] ------- [2:255 -1:255 27 0] [0x2 4 1 [17 0] [37 4]] (REQUEST)
r 1.130437493 _10_ RTR  --- 0 AODV 48 [0 ffffffff 2 800] ------- [2:255 -1:255 27 0] [0x2 4 1 [17 0] [37 4]] (REQUEST)
r 1.130437552 _11_ RTR  --- 0 AODV 48 [0 ffffffff 2 800] ------- [2:255 -1:255 27 0] [0x2 4 1 [17 0] [37 4]] (REQUEST)
r 1.130437576 _0_ RTR  --- 0 AODV 48 [0 ffffffff 2 800] ------- [2:255 -1:255 27 0] [0x2 4 1 [17 0] [37 4]] (REQUEST)
r 1.130437576 _4_ RTR  --- 0 AODV 48 [0 ffffffff 2 800] ------- [2:255 -1:255 27 0] [0x2 4 1 [17 0] [37 4]] (REQUEST)
r 1.130437783 _5_ RTR  --- 0 AODV 48 [0 ffffffff 2 800] ------- [2:255 -1:255 27 0] [0x2 4 1 [17 0] [37 4]] (REQUEST)
s 1.130675359 _35_ RTR  --- 0 AODV 48 [0 ffffffff 19 800] ------- [35:255 -1:255 29 0] [0x2 2 1 [16 0] [25 4]] (REQUEST)
s 1.130984158 _36_ RTR  --- 0 AODV 48 [0 ffffffff 19 800] ------- [36:255 -1:255 29 0] [0x2 2 1 [16 0] [25 4]] (REQUEST)
s 1.131654697 _1_ RTR  --- 0 AODV 48 [0 ffffffff c 800] ------- [1:255 -1:255 27 0] [0x2 4 1 [17 0] [37 4]] (REQUEST)
s 1.131813217 _10_ RTR  --- 0 AODV 48 [0 ffffffff c 800] ------- [10:255 -1:255 27 0] [0x2 4 1 [17 0] [37 4]] (REQUEST)
r 1.132472040 _19_ RTR  --- 0 AODV 48 [0 ffffffff 12 800] ------- [18:255 -1:255 28 0] [0x2 3 1 [17 0] [37 4]] (REQUEST)
r 1.132472043 _17_ RTR  --- 0 AODV 48 [0 ffffffff 12 800] ------- [18:255 -1:255 28 0] [0x2 3 1 [17 0] [37 4]] (REQUEST)
r 1.132472167 _10_ RTR  --- 0 AODV 48 [0 ffffffff 12 800] ------- [18:255 -1:255 28 0] [0x2 3 1 [17 0] [37 4]] (REQUEST)
r 1.132472167 _26_ RTR  --- 0 AODV 48 [0 ffffffff 12 800] ------- [18:255 -1:255 28 0] [0x2 3 1 [17 0] [37 4]] (REQUEST)
r 1.132472225 _11_ RTR  --- 0 AODV 48 [0 ffffffff 12 800] ------- [18:255 -1:255 28 0] [0x2 3 1 [17 0] [37 4]] (REQUEST)
r 1.132472225 _27_ RTR  --- 0 AODV 48 [0 ffffffff 12 800] ------- [18:255 -1:255 28 0] [0x2 3 1 [17 0] [37 4]] (REQUEST)
r 1.132472227 _9_ RTR  --- 0 AODV 48 [0 ffffffff 12 800] ------- [18:255 -1:255 28 0] [0x2 3 1 [17 0] [37 4]] (REQUEST)
r 1.132472227 _25_ RTR  --- 0 AODV 48 [0 ffffffff 12 800] ------- [18:255 -1:255 28 0] [0x2 3 1 [17 0] [37 4]] (REQUEST)
r 1.132472250 _16_ RTR  --- 0 AODV 48 [0 ffffffff 12 800] ------- [18:255 -1:255 28 0] [0x2 3 1 [17 0] [37 4]] (REQUEST)
r 1.132472250 _20_ RTR  --- 0 AODV 48 [0 ffffffff 12 800] ------- [18:255 -1:255 28 0] [0x2 3 1 [17 0] [37 4]] (REQUEST)
r 1.132472367 _12_ RTR  --- 0 AODV 48 [0 ffffffff 12 800] ------- [18:255 -1:255 28 0] [0x2 3 1 [17 0] [37 4]] (REQUEST)
r 1.132472367 _8_ RTR  --- 0 AODV 48 [0 ffffffff 12 800] ------- [18:255 -1:255 28 0] [0x2 3 1 [17 0] [37 4]] (REQUEST)
r 1.132472367 _24_ RTR  --- 0 AODV 48 [0 ffffffff 12 800] ------- [18:255 -1:255 28 0] [0x2 3 1 [17 0] [37 4]] (REQUEST)
r 1.132472367 _28_ RTR  --- 0 AODV 48 [0 ffffffff 12 800] ------- [18:255 -1:255 28 0] [0x2 3 1 [17 0] [37 4]] (REQUEST)
r 1.132472457 _21_ RTR  --- 0 AODV 48 [0 ffffffff 12 800] ------- [18:255 -1:255 28 0] [0x2 3 1 [17 0] [37 4]] (REQUEST)
r 1.132472500 _34_ RTR  --- 0 AODV 48 [0 ffffffff 12 800] ------- [18:255 -1:255 28 0] [0x2 3 1 [17 0] [37 4]] (REQUEST)
r 1.132472531 _3_ RTR  --- 0 AODV 48 [0 ffffffff 12 800] ------- [18:255 -1:255 28 0] [0x2 3 1 [17 0] [37 4]] (REQUEST)
r 1.132472531 _35_ RTR  --- 0 AODV 48 [0 ffffffff 12 800] ------- [18:255 -1:255 28 0] [0x2 3 1 [17 0] [37 4]] (REQUEST)
r 1.132472532 _1_ RTR  --- 0 AODV 48 [0 ffffffff 12 800] ------- [18:255 -1:255 28 0] [0x2 3 1 [17 0] [37 4]] (REQUEST)
r 1.132472532 _33_ RTR  --- 0 AODV 48 [0 ffffffff 12 800] ------- [18:255 -1:255 28 0] [0x2 3 1 [17 0] [37 4]] (REQUEST)
r 1.132472540 _13_ RTR  --- 0 AODV 48 [0 ffffffff 12 800] ------- [18:255 -1:255 28 0] [0x2 3 1 [17 0] [37 4]] (REQUEST)
r 1.132472540 _29_ RTR  --- 0 AODV 48 [0 ffffffff 12 800] ------- [18:255 -1:255 28 0] [0x2 3 1 [17 0] [37 4]] (REQUEST)
r 1.132472619 _4_ RTR  --- 0 AODV 48 [0 ffffffff 12 800] ------- [18:255 -1:255 28 0] [0x2 3 1 [17 0] [37 4]] (REQUEST)
r 1.132472619 _0_ RTR  --- 0 AODV 48 [0 ffffffff 12 800] ------- [18:255 -1:255 28 0] [0x2 3 1 [17 0] [37 4]] (REQUEST)
r 1.132472619 _32_ RTR  --- 0 AODV 48 [0 ffffffff 12 800] ------- [18:255 -1:255 28 0] [0x2 3 1 [17 0] [37 4]] (REQUEST)
r 1.132472619 _36_ RTR  --- 0 AODV 48 [0 ffffffff 12 800] ------- [18:255 -1:255 28 0] [0x2 3 1 [17 0] [37 4]] (REQUEST)
r 1.132472667 _22_ RTR  --- 0 AODV 48 [0 ffffffff 12 800] ------- [18:255 -1:255 28 0] [0x2 3 1 [17 0] [37 4]] (REQUEST)
s 1.132840756 _27_ RTR  --- 0 AODV 48 [0 ffffffff 19 800] ------- [27:255 -1:255 29 0] [0x2 2 1 [16 0] [25 4]] (REQUEST)
s 1.133013425 _24_ RTR  --- 0 AODV 48 [0 ffffffff 19 800] ------- [24:255 -1:255 29 0] [0x2 2 1 [16 0] [25 4]] (REQUEST)
s 1.133734773 _26_ RTR  --- 0 AODV 48 [0 ffffffff 19 800] ------- [26:255 -1:255 29 0] [0x2 2 1 [16 0] [25 4]] (REQUEST)
s 1.134790660 _17_ RTR  --- 0 AODV 48 [0 ffffffff 19 800] ------- [17:255 -1:255 29 0] [0x2 2 1 [16 0] [25 4]] (REQUEST)
r 1.134839646 _24_ RTR  --- 0 AODV 48 [0 ffffffff 19 800] ------- [25:255 -1:255 28 0] [0x2 3 1 [17 0] [37 4]] (REQUEST)
r 1.134839649 _26_ RTR  --- 0 AODV 48 [0 ffffffff 19 800] ------- [25:255 -1:255 28 0] [0x2 3 1 [17 0] [37 4]] (REQUEST)
r 1.134839773 _17_ RTR  --- 0 AODV 48 [0 ffffffff 19 800] ------- [25:255 -1:255 28 0] [0x2 3 1 [17 0] [37 4]] (REQUEST)
r 1.134839773 _33_ RTR  --- 0 AODV 48 [0 ffffffff 19 800] ------- [25:255 -1:255 28 0] [0x2 3 1 [17 0] [37 4]] (REQUEST)
r 1.134839831 _16_ RTR  --- 0 AODV 48 [0 ffffffff 19 800] ------- [25:255 -1:255 28 0] [0x2 3 1 [17 0] [37 4]] (REQUEST)
r 1.134839831 _32_ RTR  --- 0 AODV 48 [0 ffffffff 19 800] ------- [25:255 -1:255 28 0] [0x2 3 1 [17 0] [37 4]] (REQUEST)
r 1.134839833 _18_ RTR  --- 0 AODV 48 [0 ffffffff 19 800] ------- [25:255 -1:255 28 0] [0x2 3 1 [17 0] [37 4]] (REQUEST)
r 1.134906365 _37_ RTR  --- 0 AODV 48 [0 ffffffff 24 800] ------- [36:255 -1:255 29 0] [0x2 2 1 [16 0] [25 4]] (REQUEST)
r 1.134906368 _35_ RTR  --- 0 AODV 48 [0 ffffffff 24 800] ------- [36:255 -1:255 29 0] [0x2 2 1 [16 0] [25 4]] (REQUEST)
r 1.134906492 _28_ RTR  --- 0 AODV 48 [0 ffffffff 24 800] ------- [36:255 -1:255 29 0] [0x2 2 1 [16 0] [25 4]] (REQUEST)
r 1.134906575 _38_ RTR  --- 0 AODV 48 [0 ffffffff 24 800] ------- [36:255 -1:255 29 0] [0x2 2 1 [16 0] [25 4]] (REQUEST)
r 1.135017900 _14_ RTR  --- 0 AODV 48 [0 ffffffff f 800] ------- [15:255 -1:255 28 0] [0x2 3 1 [17 0] [37 4]] (REQUEST)
r 1.135018027 _7_ RTR  --- 0 AODV 48 [0 ffffffff f 800] ------- [15:255 -1:255 28 0] [0x2 3 1 [17 0] [37 4]] (REQUEST)
r 1.135018027 _23_ RTR  --- 0 AODV 48 [0 ffffffff f 800] ------- [15:255 -1:255 28 0] [0x2 3 1 [17 0] [37 4]] (REQUEST)
r 1.135018086 _6_ RTR  --- 0 AODV 48 [0 ffffffff f 800] ------- [15:255 -1:255 28 0] [0x2 3 1 [17 0] [37 4]] (REQUEST)
r 1.135018086 _22_ RTR  --- 0 AODV 48 [0 ffffffff f 800] ------- [15:255 -1:255 28 0] [0x2 3 1 [17 0] [37 4]] (REQUEST)
r 1.135018110 _13_ RTR  --- 0 AODV 48 [0 ffffffff f 800] ------- [15:255 -1:255 28 0] [0x2 3 1 [17 0] [37 4]] (REQUEST)
r 1.135018227 _5_ RTR  --- 0 AODV 48 [0 ffffffff f 800] ------- [15:255 -1:255 28 0] [0x2 3 1 [17 0] [37 4]] (REQUEST)
s 1.135049786 _16_ RTR  --- 0 AODV 48 [0 ffffffff 12 800] ------- [16:255 -1:255 27 0] [0x2 4 1 [17 0] [37 4]] (REQUEST)
s 1.136075386 _34_ RTR  --- 0 AODV 48 [0 ffffffff 19 800] ------- [34:255 -1:255 29 0] [0x2 2 1 [16 0] [25 4]] (REQUEST)
s 1.136194806 _24_ RTR  --- 0 AODV 48 [0 ffffffff 12 800] ------- [24:255 -1:255 27 0] [0x2 4 1 [17 0] [37 4]] (REQUEST)
s 1.136205460 _33_ RTR  --- 0 AODV 48 [0 ffffffff 19 800] ------- [33:255 -1:255 29 0] [0x2 2 1 [16 0] [25 4]] (REQUEST)
s 1.136849553 _32_ RTR  --- 0 AODV 48 [0 ffffffff 19 800] ------- [32:255 -1:255 29 0] [0x2 2 1 [16 0] [25 4]] (REQUEST)