s 1.106011134 _31_ AGT  --- 0 tcp 40 [0 0 0 0] ------- [31:0 4:0 32 0] [0 0] 0 0
r 1.106011134 _31_ RTR  --- 0 tcp 40 [0 0 0 0] ------- [31:0 4:0 32 0] [0 0] 0 0
s 1.106011134 _31_ RTR  --- 0 AODV 48 [0 0 0 0] ------- [31:255 -1:255 30 0] [0x2 1 1 [4 0] [31 4]] (REQUEST)
s 1.108921443 _8_ AGT  --- 1 tcp 40 [0 0 0 0] ------- [8:1 1:0 32 0] [0 0] 0 0
r 1.108921443 _8_ RTR  --- 1 tcp 40 [0 0 0 0] ------- [8:1 1:0 32 0] [0 0] 0 0
s 1.108921443 _8_ RTR  --- 0 AODV 48 [0 0 0 0] ------- [8:255 -1:255 30 0] [0x2 1 1 [1 0] [8 4]] (REQUEST)
r 1.109293340 _30_ RTR  --- 0 AODV 48 [0 ffffffff 1f 800] ------- [31:255 -1:255 30 0] [0x2 1 1 [4 0] [31 4]] (REQUEST)
r 1.109293467 _23_ RTR  --- 0 AODV 48 [0 ffffffff 1f 800] ------- [31:255 -1:255 30 0] [0x2 1 1 [4 0] [31 4]] (REQUEST)
r 1.109293467 _39_ RTR  --- 0 AODV 48 [0 ffffffff 1f 800] ------- [31:255 -1:255 30 0] [0x2 1 1 [4 0] [31 4]] (REQUEST)
r 1.109293526 _22_ RTR  --- 0 AODV 48 [0 ffffffff 1f 800] ------- [31:255 -1:255 30 0] [0x2 1 1 [4 0] [31 4]] (REQUEST)
r 1.109293526 _38_ RTR  --- 0 AODV 48 [0 ffffffff 1f 800] ------- [31:255 -1:255 30 0] [0x2 1 1 [4 0] [31 4]] (REQUEST)
r 1.109293550 _29_ RTR  --- 0 AODV 48 [0 ffffffff 1f 800] ------- [31:255 -1:255 30 0] [0x2 1 1 [4 0] [31 4]] (REQUEST)
r 1.109293667 _21_ RTR  --- 0 AODV 48 [0 ffffffff 1f 800] ------- [31:255 -1:255 30 0] [0x2 1 1 [4 0] [31 4]] (REQUEST)
r 1.109293667 _37_ RTR  --- 0 AODV 48 [0 ffffffff 1f 800] ------- [31:255 -1:255 30 0] [0x2 1 1 [4 0] [31 4]] (REQUEST)
r 1.109293757 _28_ RTR  --- 0 AODV 48 [0 ffffffff 1f 800] ------- [31:255 -1:255 30 0] [0x2 1 1 [4 0] [31 4]] (REQUEST)
r 1.109293800 _15_ RTR  --- 0 AODV 48 [0 ffffffff 1f 800] ------- [31:255 -1:255 30 0] [0x2 1 1 [4 0] [31 4]] (REQUEST)
r 1.109293832 _14_ RTR  --- 0 AODV 48 [0 ffffffff 1f 800] ------- [31:255 -1:255 30 0] [0x2 1 1 [4 0] [31 4]] (REQUEST)
r 1.109293840 _20_ RTR  --- 0 AODV 48 [0 ffffffff 1f 800] ------- [31:255 -1:255 30 0] [0x2 1 1 [4 0] [31 4]] (REQUEST)
r 1.109293840 _36_ RTR  --- 0 AODV 48 [0 ffffffff 1f 800] ------- [31:255 -1:255 30 0] [0x2 1 1 [4 0] [31 4]] (REQUEST)
r 1.109293920 _13_ RTR  --- 0 AODV 48 [0 ffffffff 1f 800] ------- [31:255 -1:255 30 0] [0x2 1 1 [4 0] [31 4]] (REQUEST)
r 1.109293967 _27_ RTR  --- 0 AODV 48 [0 ffffffff 1f 800] ------- [31:255 -1:255 30 0] [0x2 1 1 [4 0] [31 4]] (REQUEST)
s 1.109958607 _28_ RTR  --- 0 AODV 48 [0 ffffffff 1f 800] ------- [28:255 -1:255 29 0] [0x2 2 1 [4 0] [31 4]] (REQUEST)
s 1.110811465 _38_ RTR  --- 0 AODV 48 [0 ffffffff 1f 800] ------- [38:255 -1:255 29 0] [0x2 2 1 [4 0] [31 4]] (REQUEST)
s 1.111922529 _13_ RTR  --- 0 AODV 48 [0 ffffffff 1f 800] ------- [13:255 -1:255 29 0] [0x2 2 1 [4 0] [31 4]] (REQUEST)
r 1.113163650 _9_ RTR  --- 0 AODV 48 [0 ffffffff 8 800] ------- [8:255 -1:255 30 0] [0x2 1 1 [1 0] [8 4]] (REQUEST)
r 1.113163776 _0_ RTR  --- 0 AODV 48 [0 ffffffff 8 800] ------- [8:255 -1:255 30 0] [0x2 1 1 [1 0] [8 4]] (REQUEST)
r 1.113163776 _16_ RTR  --- 0 AODV 48 [0 ffffffff 8 800] ------- [8:255 -1:255 30 0] [0x2 1 1 [1 0] [8 4]] (REQUEST)
r 1.113163835 _1_ RTR  --- 0 AODV 48 [0 ffffffff 8 800] ------- [8:255 -1:255 30 0] [0x2 1 1 [1 0] [8 4]] (REQUEST)
r 1.113163835 _17_ RTR  --- 0 AODV 48 [0 ffffffff 8 800] ------- [8:255 -1:255 30 0] [0x2 1 1 [1 0] [8 4]] (REQUEST)
s 1.113163835 _1_ RTR  --- 0 AODV 44 [0 0 0 0] ------- [1:255 8:255 30 8] [0x4 1 [1 4] 10.000000] (REPLY)
r 1.113163860 _10_ RTR  --- 0 AODV 48 [0 ffffffff 8 800] ------- [8:255 -1:255 30 0] [0x2 1 1 [1 0] [8 4]] (REQUEST)
r 1.113163977 _2_ RTR  --- 0 AODV 48 [0 ffffffff 8 800] ------- [8:255 -1:255 30 0] [0x2 1 1 [1 0] [8 4]] (REQUEST)
r 1.113163977 _18_ RTR  --- 0 AODV 48 [0 ffffffff 8 800] ------- [8:255 -1:255 30 0] [0x2 1 1 [1 0] [8 4]] (REQUEST)
r 1.113164066 _11_ RTR  --- 0 AODV 48 [0 ffffffff 8 800] ------- [8:255 -1:255 30 0] [0x2 1 1 [1 0] [8 4]] (REQUEST)
r 1.113164110 _24_ RTR  --- 0 AODV 48 [0 ffffffff 8 800] ------- [8:255 -1:255 30 0] [0x2 1 1 [1 0] [8 4]] (REQUEST)
r 1.113164141 _25_ RTR  --- 0 AODV 48 [0 ffffffff 8 800] ------- [8:255 -1:255 30 0] [0x2 1 1 [1 0] [8 4]] (REQUEST)
r 1.113164150 _3_ RTR  --- 0 AODV 48 [0 ffffffff 8 800] ------- [8:255 -1:255 30 0] [0x2 1 1 [1 0] [8 4]] (REQUEST)
r 1.113164150 _19_ RTR  --- 0 AODV 48 [0 ffffffff 8 800] ------- [8:255 -1:255 30 0] [0x2 1 1 [1 0] [8 4]] (REQUEST)
r 1.113164229 _26_ RTR  --- 0 AODV 48 [0 ffffffff 8 800] ------- [8:255 -1:255 30 0] [0x2 1 1 [1 0] [8 4]] (REQUEST)
r 1.113164276 _12_ RTR  --- 0 AODV 48 [0 ffffffff 8 800] ------- [8:255 -1:255 30 0] [0x2 1 1 [1 0] [8 4]] (REQUEST)
s 1.113579840 _24_ RTR  --- 0 AODV 48 [0 ffffffff 8 800] ------- [24:255 -1:255 29 0] [0x2 2 1 [1 0] [8 4]] (REQUEST)
s 1.113703311 _19_ RTR  --- 0 AODV 48 [0 ffffffff 8 800] ------- [19:255 -1:255 29 0] [0x2 2 1 [1 0] [8 4]] (REQUEST)
s 1.113893078 _30_ RTR  --- 0 AODV 48 [0 ffffffff 1f 800] ------- [30:255 -1:255 29 0] [0x2 2 1 [4 0] [31 4]] (REQUEST)
s 1.113938114 _25_ RTR  --- 0 AODV 48 [0 ffffffff 8 800] ------- [25:255 -1:255 29 0] [0x2 2 1 [1 0] [8 4]] (REQUEST)
s 1.114089129 _27_ RTR  --- 0 AODV 48 [0 ffffffff 1f 800] ------- [27:255 -1:255 29 0] [0x2 2 1 [4 0] [31 4]] (REQUEST)
s 1.114358308 _3_ RTR  --- 0 AODV 48 [0 ffffffff 8 800] ------- [3:255 -1:255 29 0] [0x2 2 1 [1 0] [8 4]] (REQUEST)
s 1.114474130 _14_ RTR  --- 0 AODV 48 [0 ffffffff 1f 800] ------- [14:255 -1:255 29 0] [0x2 2 1 [4 0] [31 4]] (REQUEST)
s 1.114647193 _37_ RTR  --- 0 AODV 48 [0 ffffffff 1f 800] ------- [37:255 -1:255 29 0] [0x2 2 1 [4 0] [31 4]] (REQUEST)
s 1.114695984 _21_ RTR  --- 0 AODV 48 [0 ffffffff 1f 800] ------- [21:255 -1:255 29 0] [0x2 2 1 [4 0] [31 4]] (REQUEST)
s 1.114828472 _18_ RTR  --- 0 AODV 48 [0 ffffffff 8 800] ------- [18:255 -1:255 29 0] [0x2 2 1 [1 0] [8 4]] (REQUEST)
s 1.115093109 _11_ RTR  --- 0 AODV 48 [0 ffffffff 8 800] ------- [11:255 -1:255 29 0] [0x2 2 1 [1 0] [8 4]] (REQUEST)
s 1.115307650 _12_ RTR  --- 0 AODV 48 [0 ffffffff 8 800] ------- [12:255 -1:255 29 0] [0x2 2 1 [1 0] [8 4]] (REQUEST)
s 1.115811134 _9_ RTR  --- 0 AODV 48 [0 ffffffff 8 800] ------- [9:255 -1:255 29 0] [0x2 2 1 [1 0] [8 4]] (REQUEST)
s 1.115968262 _2_ RTR  --- 0 AODV 48 [0 ffffffff 8 800] ------- [2:255 -1:255 29 0] [0x2 2 1 [1 0] [8 4]] (REQUEST)
r 1.116164735 _12_ RTR  --- 0 AODV 48 [0 ffffffff d 800] ------- [13:255 -1:255 29 0] [0x2 2 1 [4 0] [31 4]] (REQUEST)
r 1.116164739 _14_ RTR  --- 0 AODV 48 [0 ffffffff d 800] ------- [13:255 -1:255 29 0] [0x2 2 1 [4 0] [31 4]] (REQUEST)
r 1.116164862 _5_ RTR  --- 0 AODV 48 [0 ffffffff d 800] ------- [13:255 -1:255 29 0] [0x2 2 1 [4 0] [31 4]] (REQUEST)
r 1.116164862 _21_ RTR  --- 0 AODV 48 [0 ffffffff d 800] ------- [13:255 -1:255 29 0] [0x2 2 1 [4 0] [31 4]] (REQUEST)
r 1.116164921 _20_ RTR  --- 0 AODV 48 [0 ffffffff d 800] ------- [13:255 -1:255 29 0] [0x2 2 1 [4 0] [31 4]] (REQUEST)
r 1.116164922 _6_ RTR  --- 0 AODV 48 [0 ffffffff d 800] ------- [13:255 -1:255 29 0] [0x2 2 1 [4 0] [31 4]] (REQUEST)
r 1.116164922 _22_ RTR  --- 0 AODV 48 [0 ffffffff d 800] ------- [13:255 -1:255 29 0] [0x2 2 1 [4 0] [31 4]] (REQUEST)
r 1.116164945 _15_ RTR  --- 0 AODV 48 [0 ffffffff d 800] ------- [13:255 -1:255 29 0] [0x2 2 1 [4 0] [31 4]] (REQUEST)
r 1.116165062 _7_ RTR  --- 0 AODV 48 [0 ffffffff d 800] ------- [13:255 -1:255 29 0] [0x2 2 1 [4 0] [31 4]] (REQUEST)
r 1.116165062 _23_ RTR  --- 0 AODV 48 [0 ffffffff d 800] ------- [13:255 -1:255 29 0] [0x2 2 1 [4 0] [31 4]] (REQUEST)
r 1.116165195 _29_ RTR  --- 0 AODV 48 [0 ffffffff d 800] ------- [13:255 -1:255 29 0] [0x2 2 1 [4 0] [31 4]] (REQUEST)
r 1.116165227 _30_ RTR  --- 0 AODV 48 [0 ffffffff d 800] ------- [13:255 -1:255 29 0] [0x2 2 1 [4 0] [31 4]] (REQUEST)
r 1.116165315 _31_ RTR  --- 0 AODV 48 [0 ffffffff d 800] ------- [13:255 -1:255 29 0] [0x2 2 1 [4 0] [31 4]] (REQUEST)
s 1.116591714 _36_ RTR  --- 0 AODV 48 [0 ffffffff 1f 800] ------- [36:255 -1:255 29 0] [0x2 2 1 [4 0] [31 4]] (REQUEST)
s 1.116755571 _26_ RTR  --- 0 AODV 48 [0 ffffffff 8 800] ------- [26:255 -1:255 29 0] [0x2 2 1 [1 0] [8 4]] (REQUEST)
s 1.116950150 _0_ RTR  --- 0 AODV 48 [0 ffffffff 8 800] ------- [0:255 -1:255 29 0] [0x2 2 1 [1 0] [8 4]] (REQUEST)
s 1.118103636 _20_ RTR  --- 0 AODV 48 [0 ffffffff 1f 800] ------- [20:255 -1:255 29 0] [0x2 2 1 [4 0] [31 4]] (REQUEST)
s 1.118307848 _23_ RTR  --- 0 AODV 48 [0 ffffffff 1f 800] ------- [23:255 -1:255 29 0] [0x2 2 1 [4 0] [31 4]] (REQUEST)
s 1.118350597 _22_ RTR  --- 0 AODV 48 [0 ffffffff 1f 800] ------- [22:255 -1:255 29 0] [0x2 2 1 [4 0] [31 4]] (REQUEST)
r 1.118600515 _2_ RTR  --- 0 AODV 48 [0 ffffffff 3 800] ------- [3:255 -1:255 29 0] [0x2 2 1 [1 0] [8 4]] (REQUEST)
r 1.118600518 _4_ RTR  --- 0 AODV 48 [0 ffffffff 3 800] ------- [3:255 -1:255 29 0] [0x2 2 1 [1 0] [8 4]] (REQUEST)
r 1.118600725 _1_ RTR  --- 0 AODV 48 [0 ffffffff 3 800] ------- [3:255 -1:255 29 0] [0x2 2 1 [1 0] [8 4]] (REQUEST)
r 1.118600725 _5_ RTR  --- 0 AODV 48 [0 ffffffff 3 800] ------- [3:255 -1:255 29 0] [0x2 2 1 [1 0] [8 4]] (REQUEST)
r 1.118637671 _39_ RTR  --- 0 AODV 48 [0 ffffffff 26 800] ------- [38:255 -1:255 29 0] [0x2 2 1 [4 0] [31 4]] (REQUEST)
s 1.118743791 _29_ RTR  --- 0 AODV 48 [0 ffffffff 1f 800] ------- [29:255 -1:255 29 0] [0x2 2 1 [4 0] [31 4]] (REQUEST)
s 1.118870662 _39_ RTR  --- 0 AODV 48 [0 ffffffff 1f 800] ------- [39:255 -1:255 29 0] [0x2 2 1 [4 0] [31 4]] (REQUEST)
s 1.119012107 _15_ RTR  --- 0 AODV 48 [0 ffffffff 1f 800] ------- [15:255 -1:255 29 0] [0x2 2 1 [4 0] [31 4]] (REQUEST)
s 1.119154292 _5_ RTR  --- 0 AODV 48 [0 ffffffff 3 800] ------- [5:255 -1:255 28 0] [0x2 3 1 [1 0] [8 4]] (REQUEST)
s 1.119244548 _7_ RTR  --- 0 AODV 48 [0 ffffffff d 800] ------- [7:255 -1:255 28 0] [0x2 3 1 [4 0] [31 4]] (REQUEST)
s 1.119281058 _16_ RTR  --- 0 AODV 48 [0 ffffffff 8 800] ------- [16:255 -1:255 29 0] [0x2 2 1 [1 0] [8 4]] (REQUEST)
s 1.119718252 _17_ RTR  --- 0 AODV 48 [0 ffffffff 8 800] ------- [17:255 -1:255 29 0] [0x2 2 1 [1 0] [8 4]] (REQUEST)
s 1.119904579 _4_ RTR  --- 0 AODV 48 [0 ffffffff 3 800] ------- [4:255 -1:255 28 0] [0x2 3 1 [1 0] [8 4]] (REQUEST)
s 1.120483672 _5_ RTR  --- 0 AODV 48 [0 ffffffff d 800] ------- [5:255 -1:255 28 0] [0x2 3 1 [4 0] [31 4]] (REQUEST)
s 1.121039352 _6_ RTR  --- 0 AODV 48 [0 ffffffff d 800] ------- [6:255 -1:255 28 0] [0x2 3 1 [4 0] [31 4]] (REQUEST)
r 1.121084337 _15_ RTR  --- 0 AODV 48 [0 ffffffff e 800] ------- [14:255 -1:255 29 0] [0x2 2 1 [4 0] [31 4]] (REQUEST)
r 1.121084463 _6_ RTR  --- 0 AODV 48 [0 ffffffff e 800] ------- [14:255 -1:255 29 0] [0x2 2 1 [4 0] [31 4]] (REQUEST)
r 1.121084463 _22_ RTR  --- 0 AODV 48 [0 ffffffff e 800] ------- [14:255 -1:255 29 0] [0x2 2 1 [4 0] [31 4]] (REQUEST)
r 1.121084522 _7_ RTR  --- 0 AODV 48 [0 ffffffff e 800] ------- [14:255 -1:255 29 0] [0x2 2 1 [4 0] [31 4]] (REQUEST)
r 1.121084522 _23_ RTR  --- 0 AODV 48 [0 ffffffff e 800] ------- [14:255 -1:255 29 0] [0x2 2 1 [4 0] [31 4]] (REQUEST)
r 1.121141340 _8_ RTR  --- 0 AODV 48 [0 ffffffff 9 800] ------- [9:255 -1:255 29 0] [0x2 2 1 [1 0] [8 4]] (REQUEST)
r 1.121150046 _25_ RTR  --- 0 AODV 48 [0 ffffffff 18 800] ------- [24:255 -1:255 29 0] [0x2 2 1 [1 0] [8 4]] (REQUEST)
r 1.121150173 _32_ RTR  --- 0 AODV 48 [0 ffffffff 18 800] ------- [24:255 -1:255 29 0] [0x2 2 1 [1 0] [8 4]] (REQUEST)
r 1.121150232 _33_ RTR  --- 0 AODV 48 [0 ffffffff 18 800] ------- [24:255 -1:255 29 0] [0x2 2 1 [1 0] [8 4]] (REQUEST)
s 1.121709415 _10_ RTR  --- 0 AODV 48 [0 ffffffff 8 800] ------- [10:255 -1:255 29 0] [0x2 2 1 [1 0] [8 4]] (REQUEST)
s 1.123206377 _12_ RTR  --- 0 AODV 48 [0 ffffffff d 800] ------- [12:255 -1:255 28 0] [0x2 3 1 [4 0] [31 4]] (REQUEST)
r 1.123228731 _20_ RTR  --- 0 AODV 48 [0 ffffffff 15 800] ------- [21:255 -1:255 29 0] [0x2 2 1 [4 0] [31 4]] (REQUEST)
r 1.123228734 _22_ RTR  --- 0 AODV 48 [0 ffffffff 15 800] ------- [21:255 -1:255 29 0] [0x2 2 1 [4 0] [31 4]] (REQUEST)
r 1.123228857 _13_ RTR  --- 0 AODV 48 [0 ffffffff 15 800] ------- [21:255 -1:255 29 0] [0x2 2 1 [4 0] [31 4]] (REQUEST)
r 1.123228857 _29_ RTR  --- 0 AODV 48 [0 ffffffff 15 800] ------- [21:255 -1:255 29 0] [0x2 2 1 [4 0] [31 4]] (REQUEST)
r 1.123228916 _12_ RTR  --- 0 AODV 48 [0 ffffffff 15 800] ------- [21:255 -1:255 29 0] [0x2 2 1 [4 0] [31 4]] (REQUEST)
r 1.123228916 _28_ RTR  --- 0 AODV 48 [0 ffffffff 15 800] ------- [21:255 -1:255 29 0] [0x2 2 1 [4 0] [31 4]] (REQUEST)
r 1.123228918 _14_ RTR  --- 0 AODV 48 [0 ffffffff 15 800] ------- [21:255 -1:255 29 0] [0x2 2 1 [4 0] [31 4]] (REQUEST)
r 1.123228918 _30_ RTR  --- 0 AODV 48 [0 ffffffff 15 800] ------- [21:255 -1:255 29 0] [0x2 2 1 [4 0] [31 4]] (REQUEST)
r 1.123228941 _19_ RTR  --- 0 AODV 48 [0 ffffffff 15 800] ------- [21:255 -1:255 29 0] [0x2 2 1 [4 0] [31 4]] (REQUEST)
r 1.123228941 _23_ RTR  --- 0 AODV 48 [0 ffffffff 15 800] ------- [21:255 -1:255 29 0] [0x2 2 1 [4 0] [31 4]] (REQUEST)
r 1.123229058 _15_ RTR  --- 0 AODV 48 [0 ffffffff 15 800] ------- [21:255 -1:255 29 0] [0x2 2 1 [4 0] [31 4]] (REQUEST)
r 1.123229058 _27_ RTR  --- 0 AODV 48 [0 ffffffff 15 800] ------- [21:255 -1:255 29 0] [0x2 2 1 [4 0] [31 4]] (REQUEST)
r 1.123229058 _31_ RTR  --- 0 AODV 48 [0 ffffffff 15 800] ------- [21:255 -1:255 29 0] [0x2 2 1 [4 0] [31 4]] (REQUEST)
r 1.123229147 _18_ RTR  --- 0 AODV 48 [0 ffffffff 15 800] ------- [21:255 -1:255 29 0] [0x2 2 1 [4 0] [31 4]] (REQUEST)
r 1.123229191 _5_ RTR  --- 0 AODV 48 [0 ffffffff 15 800] ------- [21:255 -1:255 29 0] [0x2 2 1 [4 0] [31 4]] (REQUEST)
r 1.123229191 _37_ RTR  --- 0 AODV 48 [0 ffffffff 15 800] ------- [21:255 -1:255 29 0] [0x2 2 1 [4 0] [31 4]] (REQUEST)
r 1.123229222 _4_ RTR  --- 0 AODV 48 [0 ffffffff 15 800] ------- [21:255 -1:255 29 0] [0x2 2 1 [4 0] [31 4]] (REQUEST)
r 1.123229222 _36_ RTR  --- 0 AODV 48 [0 ffffffff 15 800] ------- [21:255 -1:255 29 0] [0x2 2 1 [4 0] [31 4]] (REQUEST)
s 1.123229222 _4_ RTR  --- 0 AODV 44 [0 0 0 0] ------- [4:255 31:255 30 21] [0x4 1 [4 4] 10.000000] (REPLY)
r 1.123229223 _6_ RTR  --- 0 AODV 48 [0 ffffffff 15 800] ------- [21:255 -1:255 29 0] [0x2 2 1 [4 0] [31 4]] (REQUEST)
r 1.123229223 _38_ RTR  --- 0 AODV 48 [0 ffffffff 15 800] ------- [21:255 -1:255 29 0] [0x2 2 1 [4 0] [31 4]] (REQUEST)
r 1.123229231 _10_ RTR  --- 0 AODV 48 [0 ffffffff 15 800] ------- [21:255 -1:255 29 0] [0x2 2 1 [4 0] [31 4]] (REQUEST)
r 1.123229231 _26_ RTR  --- 0 AODV 48 [0 ffffffff 15 800] ------- [21:255 -1:255 29 0] [0x2 2 1 [4 0] [31 4]] (REQUEST)
r 1.123229310 _7_ RTR  --- 0 AODV 48 [0 ffffffff 15 800] ------- [21:255 -1:255 29 0] [0x2 2 1 [4 0] [31 4]] (REQUEST)
r 1.123229310 _3_ RTR  --- 0 AODV 48 [0 ffffffff 15 800] ------- [21:255 -1:255 29 0] [0x2 2 1 [4 0] [31 4]] (REQUEST)
r 1.123229310 _35_ RTR  --- 0 AODV 48 [0 ffffffff 15 800] ------- [21:255 -1:255 29 0] [0x2 2 1 [4 0] [31 4]] (REQUEST)
r 1.123229310 _39_ RTR  --- 0 AODV 48 [0 ffffffff 15 800] ------- [21:255 -1:255 29 0] [0x2 2 1 [4 0] [31 4]] (REQUEST)
r 1.123229357 _17_ RTR  --- 0 AODV 48 [0 ffffffff 15 800] ------- [21:255 -1:255 29 0] [0x2 2 1 [4 0] [31 4]] (REQUEST)
r 1.125600804 _23_ RTR  --- 0 AODV 48 [0 ffffffff 16 800] ------- [22:255 -1:255 29 0] [0x2 2 1 [4 0] [31 4]] (REQUEST)
r 1.125600807 _21_ RTR  --- 0 AODV 48 [0 ffffffff 16 800] ------- [22:255 -1:255 29 0] [0x2 2 1 [4 0] [31 4]] (REQUEST)
r 1.125600930 _30_ RTR  --- 0 AODV 48 [0 ffffffff 16 800] ------- [22:255 -1:255 29 0] [0x2 2 1 [4 0] [31 4]] (REQUEST)
r 1.125600989 _31_ RTR  --- 0 AODV 48 [0 ffffffff 16 800] ------- [22:255 -1:255 29 0] [0x2 2 1 [4 0] [31 4]] (REQUEST)
r 1.125600991 _29_ RTR  --- 0 AODV 48 [0 ffffffff 16 800] ------- [22:255 -1:255 29 0] [0x2 2 1 [4 0] [31 4]] (REQUEST)
r 1.125601014 _20_ RTR  --- 0 AODV 48 [0 ffffffff 16 800] ------- [22:255 -1:255 29 0] [0x2 2 1 [4 0] [31 4]] (REQUEST)
r 1.125601131 _28_ RTR  --- 0 AODV 48 [0 ffffffff 16 800] ------- [22:255 -1:255 29 0] [0x2 2 1 [4 0] [31 4]] (REQUEST)
r 1.125601264 _38_ RTR  --- 0 AODV 48 [0 ffffffff 16 800] ------- [22:255 -1:255 29 0] [0x2 2 1 [4 0] [31 4]] (REQUEST)
r 1.125601295 _39_ RTR  --- 0 AODV 48 [0 ffffffff 16 800] ------- [22:255 -1:255 29 0] [0x2 2 1 [4 0] [31 4]] (REQUEST)
r 1.125601296 _37_ RTR  --- 0 AODV 48 [0 ffffffff 16 800] ------- [22:255 -1:255 29 0] [0x2 2 1 [4 0] [31 4]] (REQUEST)
r 1.125601558 _7_ RTR  --- 0 AODV 48 [0 ffffffff 6 800] ------- [6:255 -1:255 28 0] [0x2 3 1 [4 0] [31 4]] (REQUEST)
r 1.125601562 _5_ RTR  --- 0 AODV 48 [0 ffffffff 6 800] ------- [6:255 -1:255 28 0] [0x2 3 1 [4 0] [31 4]] (REQUEST)
r 1.125601768 _4_ RTR  --- 0 AODV 48 [0 ffffffff 6 800] ------- [6:255 -1:255 28 0] [0x2 3 1 [4 0] [31 4]] (REQUEST)
s 1.125629821 _33_ RTR  --- 0 AODV 48 [0 ffffffff 18 800] ------- [33:255 -1:255 28 0] [0x2 3 1 [1 0] [8 4]] (REQUEST)
s 1.127217037 _26_ RTR  --- 0 AODV 48 [0 ffffffff 15 800] ------- [26:255 -1:255 28 0] [0x2 3 1 [4 0] [31 4]] (REQUEST)
s 1.128048890 _10_ RTR  --- 0 AODV 48 [0 ffffffff 15 800] ------- [10:255 -1:255 28 0] [0x2 3 1 [4 0] [31 4]] (REQUEST)
r 1.128105400 _36_ RTR  --- 0 AODV 48 [0 ffffffff 25 800] ------- [37:255 -1:255 29 0] [0x2 2 1 [4 0] [31 4]] (REQUEST)
r 1.128105403 _38_ RTR  --- 0 AODV 48 [0 ffffffff 25 800] ------- [37:255 -1:255 29 0] [0x2 2 1 [4 0] [31 4]] (REQUEST)
s 1.128122500 _18_ RTR  --- 0 AODV 48 [0 ffffffff 15 800] ------- [18:255 -1:255 28 0] [0x2 3 1 [4 0] [31 4]] (REQUEST)
r 1.128233846 _19_ RTR  --- 0 AODV 48 [0 ffffffff 14 800] ------- [20:255 -1:255 29 0] [0x2 2 1 [4 0] [31 4]] (REQUEST)
r 1.128233970 _12_ RTR  --- 0 AODV 48 [0 ffffffff 14 800] ------- [20:255 -1:255 29 0] [0x2 2 1 [4 0] [31 4]] (REQUEST)
r 1.128234030 _11_ RTR  --- 0 AODV 48 [0 ffffffff 14 800] ------- [20:255 -1:255 29 0] [0x2 2 1 [4 0] [31 4]] (REQUEST)
r 1.128234053 _18_ RTR  --- 0 AODV 48 [0 ffffffff 14 800] ------- [20:255 -1:255 29 0] [0x2 2 1 [4 0] [31 4]] (REQUEST)
r 1.128234170 _10_ RTR  --- 0 AODV 48 [0 ffffffff 14 800] ------- [20:255 -1:255 29 0] [0x2 2 1 [4 0] [31 4]] (REQUEST)
r 1.128246182 _15_ RTR  --- 0 AODV 48 [0 ffffffff 17 800] ------- [23:255 -1:255 29 0] [0x2 2 1 [4 0] [31 4]] (REQUEST)
s 1.128837028 _32_ RTR  --- 0 AODV 48 [0 ffffffff 18 800] ------- [32:255 -1:255 28 0] [0x2 3 1 [1 0] [8 4]] (REQUEST)
s 1.128988055 _11_ RTR  --- 0 AODV 48 [0 ffffffff 14 800] ------- [11:255 -1:255 28 0] [0x2 3 1 [4 0] [31 4]] (REQUEST)
s 1.129234729 _3_ RTR  --- 0 AODV 48 [0 ffffffff 15 800] ------- [3:255 -1:255 28 0] [0x2 3 1 [4 0] [31 4]] (REQUEST)
s 1.130067187 _35_ RTR  --- 0 AODV 48 [0 ffffffff 15 800] ------- [35:255 -1:255 28 0] [0x2 3 1 [4 0] [31 4]] (REQUEST)
r 1.130512028 _32_ RTR  --- 0 AODV 48 [0 ffffffff 21 800] ------- [33:255 -1:255 28 0] [0x2 3 1 [1 0] [8 4]] (REQUEST)
r 1.130512031 _34_ RTR  --- 0 AODV 48 [0 ffffffff 21 800] ------- [33:255 -1:255 28 0] [0x2 3 1 [1 0] [8 4]] (REQUEST)
r 1.130550313 _14_ RTR  --- 0 AODV 48 [0 ffffffff f 800] ------- [15:255 -1:255 29 0] [0x2 2 1 [4 0] [31 4]] (REQUEST)
r 1.130550440 _7_ RTR  --- 0 AODV 48 [0 ffffffff f 800] ------- [15:255 -1:255 29 0] [0x2 2 1 [4 0] [31 4]] (REQUEST)
r 1.130550440 _23_ RTR  --- 0 AODV 48 [0 ffffffff f 800] ------- [15:255 -1:255 29 0] [0x2 2 1 [4 0] [31 4]] (REQUEST)
r 1.130550499 _6_ RTR  --- 0 AODV 48 [0 ffffffff f 800] ------- [15:255 -1:255 29 0] [0x2 2 1 [4 0] [31 4]] (REQUEST)
s 1.131587436 _19_ RTR  --- 0 AODV 48 [0 ffffffff 15 800] ------- [19:255 -1:255 28 0] [0x2 3 1 [4 0] [31 4]] (REQUEST)
s 1.131747805 _17_ RTR  --- 0 AODV 48 [0 ffffffff 15 800] ------- [17:255 -1:255 28 0] [0x2 3 1 [4 0] [31 4]] (REQUEST)
r 1.133399235 _33_ RTR  --- 0 AODV 48 [0 ffffffff 20 800] ------- [32:255 -1:255 28 0] [0x2 3 1 [1 0] [8 4]] (REQUEST)
r 1.133399361 _24_ RTR  --- 0 AODV 48 [0 ffffffff 20 800] ------- [32:255 -1:255 28 0] [0x2 3 1 [1 0] [8 4]] (REQUEST)
r 1.133399420 _25_ RTR  --- 0 AODV 48 [0 ffffffff 20 800] ------- [32:255 -1:255 28 0] [0x2 3 1 [1 0] [8 4]] (REQUEST)
r 1.133399445 _34_ RTR  --- 0 AODV 48 [0 ffffffff 20 800] ------- [32:255 -1:255 28 0] [0x2 3 1 [1 0] [8 4]] (REQUEST)
r 1.133399561 _26_ RTR  --- 0 AODV 48 [0 ffffffff 20 800] ------- [32:255 -1:255 28 0] [0x2 3 1 [1 0] [8 4]] (REQUEST)
r 1.133399651 _35_ RTR  --- 0 AODV 48 [0 ffffffff 20 800] ------- [32:255 -1:255 28 0] [0x2 3 1 [1 0] [8 4]] (REQUEST)
r 1.133399695 _16_ RTR  --- 0 AODV 48 [0 ffffffff 20 800] ------- [32:255 -1:255 28 0] [0x2 3 1 [1 0] [8 4]] (REQUEST)
r 1.133399726 _17_ RTR  --- 0 AODV 48 [0 ffffffff 20 800] ------- [32:255 -1:255 28 0] [0x2 3 1 [1 0] [8 4]] (REQUEST)
r 1.133399735 _27_ RTR  --- 0 AODV 48 [0 ffffffff 20 800] ------- [32:255 -1:255 28 0] [0x2 3 1 [1 0] [8 4]] (REQUEST)
r 1.133399814 _18_ RTR  --- 0 AODV 48 [0 ffffffff 20 800] ------- [32:255 -1:255 28 0] [0x2 3 1 [1 0] [8 4]] (REQUEST)
r 1.133399861 _36_ RTR  --- 0 AODV 48 [0 ffffffff 20 800] ------- [32:255 -1:255 28 0] [0x2 3 1 [1 0] [8 4]] (REQUEST)
r 1.135613857 _13_ RTR  --- 0 AODV 48 [0 ffffffff c 800] ------- [12:255 -1:255 29 0] [0x2 2 1 [1 0] [8 4]] (REQUEST)
r 1.135613860 _11_ RTR  --- 0 AODV 48 [0 ffffffff c 800] ------- [12:255 -1:255 29 0] [0x2 2 1 [1 0] [8 4]] (REQUEST)
r 1.135613984 _4_ RTR  --- 0 AODV 48 [0 ffffffff c 800] ------- [12:255 -1:255 29 0] [0x2 2 1 [1 0] [8 4]] (REQUEST)
r 1.135613984 _20_ RTR  --- 0 AODV 48 [0 ffffffff c 800] ------- [12:255 -1:255 29 0] [0x2 2 1 [1 0] [8 4]] (REQUEST)
r 1.135614042 _5_ RTR  --- 0 AODV 48 [0 ffffffff c 800] ------- [12:255 -1:255 29 0] [0x2 2 1 [1 0] [8 4]] (REQUEST)
r 1.135614042 _21_ RTR  --- 0 AODV 48 [0 ffffffff c 800] ------- [12:255 -1:255 29 0] [0x2 2 1 [1 0] [8 4]] (REQUEST)
r 1.135614044 _3_ RTR  --- 0 AODV 48 [0 ffffffff c 800] ------- [12:255 -1:255 29 0] [0x2 2 1 [1 0] [8 4]] (REQUEST)
r 1.135614044 _19_ RTR  --- 0 AODV 48 [0 ffffffff c 800] ------- [12:255 -1:255 29 0] [0x2 2 1 [1 0] [8 4]] (REQUEST)
r 1.135614067 _10_ RTR  --- 0 AODV 48 [0 ffffffff c 800] ------- [12:255 -1:255 29 0] [0x2 2 1 [1 0] [8 4]] (REQUEST)
r 1.135614067 _14_ RTR  --- 0 AODV 48 [0 ffffffff c 800] ------- [12:255 -1:255 29 0] [0x2 2 1 [1 0] [8 4]] (REQUEST)
r 1.135614184 _6_ RTR  --- 0 AODV 48 [0 ffffffff c 800] ------- [12:255 -1:255 29 0] [0x2 2 1 [1 0] [8 4]] (REQUEST)
r 1.135614184 _2_ RTR  --- 0 AODV 48 [0 ffffffff c 800] ------- [12:255 -1:255 29 0] [0x2 2 1 [1 0] [8 4]] (REQUEST)
r 1.135614184 _18_ RTR  --- 0 AODV 48 [0 ffffffff c 800] ------- [12:255 -1:255 29 0] [0x2 2 1 [1 0] [8 4]] (REQUEST)
r 1.135614184 _22_ RTR  --- 0 AODV 48 [0 ffffffff c 800] ------- [12:255 -1:255 29 0] [0x2 2 1 [1 0] [8 4]] (REQUEST)
r 1.135614274 _15_ RTR  --- 0 AODV 48 [0 ffffffff c 800] ------- [12:255 -1:255 29 0] [0x2 2 1 [1 0] [8 4]] (REQUEST)
r 1.135614277 _9_ RTR  --- 0 AODV 48 [0 ffffffff c 800] ------- [12:255 -1:255 29 0] [0x2 2 1 [1 0] [8 4]] (REQUEST)
r 1.135614317 _28_ RTR  --- 0 AODV 48 [0 ffffffff c 800] ------- [12:255 -1:255 29 0] [0x2 2 1 [1 0] [8 4]] (REQUEST)
r 1.135614348 _29_ RTR  --- 0 AODV 48 [0 ffffffff c 800] ------- [12:255 -1:255 29 0] [0x2 2 1 [1 0] [8 4]] (REQUEST)
r 1.135614349 _27_ RTR  --- 0 AODV 48 [0 ffffffff c 800] ------- [12:255 -1:255 29 0] [0x2 2 1 [1 0] [8 4]] (REQUEST)
r 1.135614357 _7_ RTR  --- 0 AODV 48 [0 ffffffff c 800] ------- [12:255 -1:255 29 0] [0x2 2 1 [1 0] [8 4]] (REQUEST)
r 1.135614357 _23_ RTR  --- 0 AODV 48 [0 ffffffff c 800] ------- [12:255 -1:255 29 0] [0x2 2 1 [1 0] [8 4]] (REQUEST)
r 1.135614360 _1_ RTR  --- 0 AODV 48 [0 ffffffff c 800] ------- [12:255 -1:255 29 0] [0x2 2 1 [1 0] [8 4]] (REQUEST)
r 1.135614360 _17_ RTR  --- 0 AODV 48 [0 ffffffff c 800] ------- [12:255 -1:255 29 0] [0x2 2 1 [1 0] [8 4]] (REQUEST)
r 1.135614436 _26_ RTR  --- 0 AODV 48 [0 ffffffff c 800] ------- [12:255 -1:255 29 0] [0x2 2 1 [1 0] [8 4]] (REQUEST)
r 1.135614436 _30_ RTR  --- 0 AODV 48 [0 ffffffff c 800] ------- [12:255 -1:255 29 0] [0x2 2 1 [1 0] [8 4]] (REQUEST)
r 1.135614484 _8_ RTR  --- 0 AODV 48 [0 ffffffff c 800] ------- [12:255 -1:255 29 0] [0x2 2 1 [1 0] [8 4]] (REQUEST)
s 1.136859674 _29_ RTR  --- 0 AODV 48 [0 ffffffff c 800] ------- [29:255 -1:255 28 0] [0x2 3 1 [1 0] [8 4]] (REQUEST)
s 1.136911166 _21_ RTR  --- 0 AODV 48 [0 ffffffff c 800] ------- [21:255 -1:255 28 0] [0x2 3 1 [1 0] [8 4]] (REQUEST)
s 1.137135984 _13_ RTR  --- 0 AODV 48 [0 ffffffff c 800] ------- [13:255 -1:255 28 0] [0x2 3 1 [1 0] [8 4]] (REQUEST)
s 1.137717502 _18_ AGT  --- 2 tcp 40 [0 0 0 0] ------- [18:0 30:2 32 0] [0 0] 0 0
r 1.137717502 _18_ RTR  --- 2 tcp 40 [0 0 0 0] ------- [18:0 30:2 32 0] [0 0] 0 0
s 1.137717502 _18_ RTR  --- 0 AODV 48 [0 0 0 0] ------- [18:255 -1:255 30 0] [0x2 1 1 [30 0] [18 4]] (REQUEST)
s 1.138171070 _23_ RTR  --- 0 AODV 48 [0 ffffffff c 800] ------- [23:255 -1:255 28 0] [0x2 3 1 [1 0] [8 4]] (REQUEST)
s 1.138345727 _20_ RTR  --- 0 AODV 48 [0 ffffffff c 800] ------- [20:255 -1:255 28 0] [0x2 3 1 [1 0] [8 4]] (REQUEST)
r 1.138359284 _31_ RTR  --- 0 AODV 48 [0 ffffffff 1e 800] ------- [30:255 -1:255 29 0] [0x2 2 1 [4 0] [31 4]] (REQUEST)
r 1.138359288 _29_ RTR  --- 0 AODV 48 [0 ffffffff 1e 800] ------- [30:255 -1:255 29 0] [0x2 2 1 [4 0] [31 4]] (REQUEST)
r 1.138359411 _38_ RTR  --- 0 AODV 48 [0 ffffffff 1e 800] ------- [30:255 -1:255 29 0] [0x2 2 1 [4 0] [31 4]] (REQUEST)
r 1.138359470 _39_ RTR  --- 0 AODV 48 [0 ffffffff 1e 800] ------- [30:255 -1:255 29 0] [0x2 2 1 [4 0] [31 4]] (REQUEST)
r 1.138359472 _37_ RTR  --- 0 AODV 48 [0 ffffffff 1e 800] ------- [30:255 -1:255 29 0] [0x2 2 1 [4 0] [31 4]] (REQUEST)
r 1.138367625 _9_ RTR  --- 0 AODV 48 [0 ffffffff a 800] ------- [10:255 -1:255 29 0] [0x2 2 1 [1 0] [8 4]] (REQUEST)
r 1.138367831 _8_ RTR  --- 0 AODV 48 [0 ffffffff a 800] ------- [10:255 -1:255 29 0] [0x2 2 1 [1 0] [8 4]] (REQUEST)
r 1.138525857 _13_ RTR  --- 0 AODV 48 [0 ffffffff c 800] ------- [12:255 -1:255 28 0] [0x2 3 1 [4 0] [31 4]] (REQUEST)
s 1.138833689 _27_ RTR  --- 0 AODV 48 [0 ffffffff 20 800] ------- [27:255 -1:255 27 0] [0x2 4 1 [1 0] [8 4]] (REQUEST)
s 1.139518476 _34_ RTR  --- 0 AODV 48 [0 ffffffff 21 800] ------- [34:255 -1:255 27 0] [0x2 4 1 [1 0] [8 4]] (REQUEST)
s 1.139833796 _30_ RTR  --- 0 AODV 48 [0 ffffffff c 800] ------- [30:255 -1:255 28 0] [0x2 3 1 [1 0] [8 4]] (REQUEST)
s 1.140268489 _7_ RTR  --- 0 AODV 48 [0 ffffffff c 800] ------- [7:255 -1:255 28 0] [0x2 3 1 [1 0] [8 4]] (REQUEST)
r 1.140978785 _5_ RTR  --- 0 AODV 48 [0 ffffffff 4 800] ------- [4:255 -1:255 28 0] [0x2 3 1 [1 0] [8 4]] (REQUEST)
r 1.140978789 _3_ RTR  --- 0 AODV 48 [0 ffffffff 4 800] ------- [4:255 -1:255 28 0] [0x2 3 1 [1 0] [8 4]] (REQUEST)
r 1.140978912 _12_ RTR  --- 0 AODV 48 [0 ffffffff 4 800] ------- [4:255 -1:255 28 0] [0x2 3 1 [1 0] [8 4]] (REQUEST)
r 1.140984459 _16_ RTR  --- 0 AODV 48 [0 ffffffff 11 800] ------- [17:255 -1:255 29 0] [0x2 2 1 [1 0] [8 4]] (REQUEST)
r 1.140984462 _18_ RTR  --- 0 AODV 48 [0 ffffffff 11 800] ------- [17:255 -1:255 29 0] [0x2 2 1 [1 0] [8 4]] (REQUEST)
r 1.140984585 _9_ RTR  --- 0 AODV 48 [0 ffffffff 11 800] ------- [17:255 -1:255 29 0] [0x2 2 1 [1 0] [8 4]] (REQUEST)
r 1.140984585 _25_ RTR  --- 0 AODV 48 [0 ffffffff 11 800] ------- [17:255 -1:255 29 0] [0x2 2 1 [1 0] [8 4]] (REQUEST)
r 1.140984644 _8_ RTR  --- 0 AODV 48 [0 ffffffff 11 800] ------- [17:255 -1:255 29 0] [0x2 2 1 [1 0] [8 4]] (REQUEST)
r 1.140984644 _24_ RTR  --- 0 AODV 48 [0 ffffffff 11 800] ------- [17:255 -1:255 29 0] [0x2 2 1 [1 0] [8 4]] (REQUEST)
r 1.140984646 _26_ RTR  --- 0 AODV 48 [0 ffffffff 11 800] ------- [17:255 -1:255 29 0] [0x2 2 1 [1 0] [8 4]] (REQUEST)
r 1.140984919 _33_ RTR  --- 0 AODV 48 [0 ffffffff 11 800] ------- [17:255 -1:255 29 0] [0x2 2 1 [1 0] [8 4]] (REQUEST)
r 1.140984950 _32_ RTR  --- 0 AODV 48 [0 ffffffff 11 800] ------- [17:255 -1:255 29 0] [0x2 2 1 [1 0] [8 4]] (REQUEST)
s 1.141074778 _28_ RTR  --- 0 AODV 48 [0 ffffffff c 800] ------- [28:255 -1:255 28 0] [0x2 3 1 [1 0] [8 4]] (REQUEST)
r 1.141133276 _22_ RTR  --- 0 AODV 48 [0 ffffffff 17 800] ------- [23:255 -1:255 28 0] [0x2 3 1 [1 0] [8 4]] (REQUEST)
r 1.141133403 _15_ RTR  --- 0 AODV 48 [0 ffffffff 17 800] ------- [23:255 -1:255 28 0] [0x2 3 1 [1 0] [8 4]] (REQUEST)
r 1.141133403 _31_ RTR  --- 0 AODV 48 [0 ffffffff 17 800] ------- [23:255 -1:255 28 0] [0x2 3 1 [1 0] [8 4]] (REQUEST)
r 1.141133462 _30_ RTR  --- 0 AODV 48 [0 ffffffff 17 800] ------- [23:255 -1:255 28 0] [0x2 3 1 [1 0] [8 4]] (REQUEST)
r 1.141133736 _39_ RTR  --- 0 AODV 48 [0 ffffffff 17 800] ------- [23:255 -1:255 28 0] [0x2 3 1 [1 0] [8 4]] (REQUEST)
s 1.141433867 _35_ RTR  --- 0 AODV 48 [0 ffffffff 20 800] ------- [35:255 -1:255 27 0] [0x2 4 1 [1 0] [8 4]] (REQUEST)
s 1.141597969 _36_ RTR  --- 0 AODV 48 [0 ffffffff 20 800] ------- [36:255 -1:255 27 0] [0x2 4 1 [1 0] [8 4]] (REQUEST)
s 1.142528590 _15_ RTR  --- 0 AODV 48 [0 ffffffff c 800] ------- [15:255 -1:255 28 0] [0x2 3 1 [1 0] [8 4]] (REQUEST)
r 1.143123178 _12_ RTR  --- 0 AODV 48 [0 ffffffff d 800] ------- [13:255 -1:255 28 0] [0x2 3 1 [1 0] [8 4]] (REQUEST)
r 1.143123181 _14_ RTR  --- 0 AODV 48 [0 ffffffff d 800] ------- [13:255 -1:255 28 0] [0x2 3 1 [1 0] [8 4]] (REQUEST)
r 1.143123304 _5_ RTR  --- 0 AODV 48 [0 ffffffff d 800] ------- [13:255 -1:255 28 0] [0x2 3 1 [1 0] [8 4]] (REQUEST)
r 1.143123304 _21_ RTR  --- 0 AODV 48 [0 ffffffff d 800] ------- [13:255 -1:255 28 0] [0x2 3 1 [1 0] [8 4]] (REQUEST)
r 1.143123363 _4_ RTR  --- 0 AODV 48 [0 ffffffff d 800] ------- [13:255 -1:255 28 0] [0x2 3 1 [1 0] [8 4]] (REQUEST)
r 1.143123363 _20_ RTR  --- 0 AODV 48 [0 ffffffff d 800] ------- [13:255 -1:255 28 0] [0x2 3 1 [1 0] [8 4]] (REQUEST)
r 1.143123365 _6_ RTR  --- 0 AODV 48 [0 ffffffff d 800] ------- [13:255 -1:255 28 0] [0x2 3 1 [1 0] [8 4]] (REQUEST)
r 1.143123365 _22_ RTR  --- 0 AODV 48 [0 ffffffff d 800] ------- [13:255 -1:255 28 0] [0x2 3 1 [1 0] [8 4]] (REQUEST)
r 1.143123388 _11_ RTR  --- 0 AODV 48 [0 ffffffff d 800] ------- [13:255 -1:255 28 0] [0x2 3 1 [1 0] [8 4]] (REQUEST)
r 1.143123388 _15_ RTR  --- 0 AODV 48 [0 ffffffff d 800] ------- [13:255 -1:255 28 0] [0x2 3 1 [1 0] [8 4]] (REQUEST)
r 1.143123505 _7_ RTR  --- 0 AODV 48 [0 ffffffff d 800] ------- [13:255 -1:255 28 0] [0x2 3 1 [1 0] [8 4]] (REQUEST)
r 1.143123505 _3_ RTR  --- 0 AODV 48 [0 ffffffff d 800] ------- [13:255 -1:255 28 0] [0x2 3 1 [1 0] [8 4]] (REQUEST)
r 1.143123505 _19_ RTR  --- 0 AODV 48 [0 ffffffff d 800] ------- [13:255 -1:255 28 0] [0x2 3 1 [1 0] [8 4]] (REQUEST)