s 1.024285828 _15_ AGT  --- 0 tcp 40 [0 0 0 0] ------- [15:0 1:0 32 0] [0 0] 0 0
r 1.024285828 _15_ RTR  --- 0 tcp 40 [0 0 0 0] ------- [15:0 1:0 32 0] [0 0] 0 0
s 1.024285828 _15_ RTR  --- 0 AODV 48 [0 0 0 0] ------- [15:255 -1:255 30 0] [0x2 1 1 [1 0] [15 4]] (REQUEST)
r 1.028208161 _16_ RTR  --- 0 AODV 48 [0 ffffffff f 800] ------- [15:255 -1:255 30 0] [0x2 1 1 [1 0] [15 4]] (REQUEST)
r 1.028208245 _10_ RTR  --- 0 AODV 48 [0 ffffffff f 800] ------- [15:255 -1:255 30 0] [0x2 1 1 [1 0] [15 4]] (REQUEST)
r 1.028208361 _11_ RTR  --- 0 AODV 48 [0 ffffffff f 800] ------- [15:255 -1:255 30 0] [0x2 1 1 [1 0] [15 4]] (REQUEST)
r 1.028208495 _17_ RTR  --- 0 AODV 48 [0 ffffffff f 800] ------- [15:255 -1:255 30 0] [0x2 1 1 [1 0] [15 4]] (REQUEST)
r 1.028208614 _12_ RTR  --- 0 AODV 48 [0 ffffffff f 800] ------- [15:255 -1:255 30 0] [0x2 1 1 [1 0] [15 4]] (REQUEST)
r 1.028208661 _5_ RTR  --- 0 AODV 48 [0 ffffffff f 800] ------- [15:255 -1:255 30 0] [0x2 1 1 [1 0] [15 4]] (REQUEST)
s 1.029708498 _12_ RTR  --- 0 AODV 48 [0 ffffffff f 800] ------- [12:255 -1:255 29 0] [0x2 2 1 [1 0] [15 4]] (REQUEST)
s 1.032272436 _5_ RTR  --- 0 AODV 48 [0 ffffffff f 800] ------- [5:255 -1:255 29 0] [0x2 2 1 [1 0] [15 4]] (REQUEST)
r 1.033310832 _11_ RTR  --- 0 AODV 48 [0 ffffffff c 800] ------- [12:255 -1:255 29 0] [0x2 2 1 [1 0] [15 4]] (REQUEST)
r 1.033310832 _13_ RTR  --- 0 AODV 48 [0 ffffffff c 800] ------- [12:255 -1:255 29 0] [0x2 2 1 [1 0] [15 4]] (REQUEST)
r 1.033310915 _7_ RTR  --- 0 AODV 48 [0 ffffffff c 800] ------- [12:255 -1:255 29 0] [0x2 2 1 [1 0] [15 4]] (REQUEST)
r 1.033310915 _17_ RTR  --- 0 AODV 48 [0 ffffffff c 800] ------- [12:255 -1:255 29 0] [0x2 2 1 [1 0] [15 4]] (REQUEST)
r 1.033311032 _8_ RTR  --- 0 AODV 48 [0 ffffffff c 800] ------- [12:255 -1:255 29 0] [0x2 2 1 [1 0] [15 4]] (REQUEST)
r 1.033311032 _6_ RTR  --- 0 AODV 48 [0 ffffffff c 800] ------- [12:255 -1:255 29 0] [0x2 2 1 [1 0] [15 4]] (REQUEST)
r 1.033311032 _16_ RTR  --- 0 AODV 48 [0 ffffffff c 800] ------- [12:255 -1:255 29 0] [0x2 2 1 [1 0] [15 4]] (REQUEST)
r 1.033311032 _18_ RTR  --- 0 AODV 48 [0 ffffffff c 800] ------- [12:255 -1:255 29 0] [0x2 2 1 [1 0] [15 4]] (REQUEST)
r 1.033311165 _10_ RTR  --- 0 AODV 48 [0 ffffffff c 800] ------- [12:255 -1:255 29 0] [0x2 2 1 [1 0] [15 4]] (REQUEST)
r 1.033311165 _14_ RTR  --- 0 AODV 48 [0 ffffffff c 800] ------- [12:255 -1:255 29 0] [0x2 2 1 [1 0] [15 4]] (REQUEST)
r 1.033311285 _9_ RTR  --- 0 AODV 48 [0 ffffffff c 800] ------- [12:255 -1:255 29 0] [0x2 2 1 [1 0] [15 4]] (REQUEST)
r 1.033311285 _5_ RTR  --- 0 AODV 48 [0 ffffffff c 800] ------- [12:255 -1:255 29 0] [0x2 2 1 [1 0] [15 4]] (REQUEST)
r 1.033311285 _15_ RTR  --- 0 AODV 48 [0 ffffffff c 800] ------- [12:255 -1:255 29 0] [0x2 2 1 [1 0] [15 4]] (REQUEST)
r 1.033311285 _19_ RTR  --- 0 AODV 48 [0 ffffffff c 800] ------- [12:255 -1:255 29 0] [0x2 2 1 [1 0] [15 4]] (REQUEST)
r 1.033311332 _2_ RTR  --- 0 AODV 48 [0 ffffffff c 800] ------- [12:255 -1:255 29 0] [0x2 2 1 [1 0] [15 4]] (REQUEST)
s 1.033312577 _13_ RTR  --- 0 AODV 48 [0 ffffffff c 800] ------- [13:255 -1:255 28 0] [0x2 3 1 [1 0] [15 4]] (REQUEST)
s 1.033344834 _2_ RTR  --- 0 AODV 48 [0 ffffffff c 800] ------- [2:255 -1:255 28 0] [0x2 3 1 [1 0] [15 4]] (REQUEST)
s 1.033639089 _14_ RTR  --- 0 AODV 48 [0 ffffffff c 800] ------- [14:255 -1:255 28 0] [0x2 3 1 [1 0] [15 4]] (REQUEST)
s 1.033792247 _16_ RTR  --- 0 AODV 48 [0 ffffffff f 800] ------- [16:255 -1:255 29 0] [0x2 2 1 [1 0] [15 4]] (REQUEST)
s 1.034145214 _7_ RTR  --- 0 AODV 48 [0 ffffffff c 800] ------- [7:255 -1:255 28 0] [0x2 3 1 [1 0] [15 4]] (REQUEST)
s 1.034843754 _17_ RTR  --- 0 AODV 48 [0 ffffffff f 800] ------- [17:255 -1:255 29 0] [0x2 2 1 [1 0] [15 4]] (REQUEST)
s 1.036046112 _11_ RTR  --- 0 AODV 48 [0 ffffffff f 800] ------- [11:255 -1:255 29 0] [0x2 2 1 [1 0] [15 4]] (REQUEST)
s 1.036361174 _19_ RTR  --- 0 AODV 48 [0 ffffffff c 800] ------- [19:255 -1:255 28 0] [0x2 3 1 [1 0] [15 4]] (REQUEST)
s 1.036364068 _10_ RTR  --- 0 AODV 48 [0 ffffffff f 800] ------- [10:255 -1:255 29 0] [0x2 2 1 [1 0] [15 4]] (REQUEST)
s 1.036633176 _8_ RTR  --- 0 AODV 48 [0 ffffffff c 800] ------- [8:255 -1:255 28 0] [0x2 3 1 [1 0] [15 4]] (REQUEST)
r 1.036914910 _12_ RTR  --- 0 AODV 48 [0 ffffffff d 800] ------- [13:255 -1:255 28 0] [0x2 3 1 [1 0] [15 4]] (REQUEST)
r 1.036914910 _14_ RTR  --- 0 AODV 48 [0 ffffffff d 800] ------- [13:255 -1:255 28 0] [0x2 3 1 [1 0] [15 4]] (REQUEST)
r 1.036914994 _8_ RTR  --- 0 AODV 48 [0 ffffffff d 800] ------- [13:255 -1:255 28 0] [0x2 3 1 [1 0] [15 4]] (REQUEST)
r 1.036914994 _18_ RTR  --- 0 AODV 48 [0 ffffffff d 800] ------- [13:255 -1:255 28 0] [0x2 3 1 [1 0] [15 4]] (REQUEST)
r 1.036915111 _9_ RTR  --- 0 AODV 48 [0 ffffffff d 800] ------- [13:255 -1:255 28 0] [0x2 3 1 [1 0] [15 4]] (REQUEST)
r 1.036915111 _17_ RTR  --- 0 AODV 48 [0 ffffffff d 800] ------- [13:255 -1:255 28 0] [0x2 3 1 [1 0] [15 4]] (REQUEST)
r 1.036915111 _19_ RTR  --- 0 AODV 48 [0 ffffffff d 800] ------- [13:255 -1:255 28 0] [0x2 3 1 [1 0] [15 4]] (REQUEST)
s 1.036963758 _9_ RTR  --- 0 AODV 48 [0 ffffffff c 800] ------- [9:255 -1:255 28 0] [0x2 3 1 [1 0] [15 4]] (REQUEST)
r 1.037154770 _6_ RTR  --- 0 AODV 48 [0 ffffffff 5 800] ------- [5:255 -1:255 29 0] [0x2 2 1 [1 0] [15 4]] (REQUEST)
r 1.037154853 _0_ RTR  --- 0 AODV 48 [0 ffffffff 5 800] ------- [5:255 -1:255 29 0] [0x2 2 1 [1 0] [15 4]] (REQUEST)
r 1.037154853 _10_ RTR  --- 0 AODV 48 [0 ffffffff 5 800] ------- [5:255 -1:255 29 0] [0x2 2 1 [1 0] [15 4]] (REQUEST)
r 1.037154970 _1_ RTR  --- 0 AODV 48 [0 ffffffff 5 800] ------- [5:255 -1:255 29 0] [0x2 2 1 [1 0] [15 4]] (REQUEST)
s 1.037154970 _1_ RTR  --- 0 AODV 44 [0 0 0 0] ------- [1:255 15:255 30 5] [0x4 1 [1 4] 10.000000] (REPLY)
s 1.038346624 _0_ RTR  --- 0 AODV 48 [0 ffffffff 5 800] ------- [0:255 -1:255 28 0] [0x2 3 1 [1 0] [15 4]] (REQUEST)
r 1.039595510 _7_ RTR  --- 0 AODV 48 [0 ffffffff 8 800] ------- [8:255 -1:255 28 0] [0x2 3 1 [1 0] [15 4]] (REQUEST)
r 1.039595510 _9_ RTR  --- 0 AODV 48 [0 ffffffff 8 800] ------- [8:255 -1:255 28 0] [0x2 3 1 [1 0] [15 4]] (REQUEST)
r 1.039595593 _3_ RTR  --- 0 AODV 48 [0 ffffffff 8 800] ------- [8:255 -1:255 28 0] [0x2 3 1 [1 0] [15 4]] (REQUEST)
r 1.039595710 _4_ RTR  --- 0 AODV 48 [0 ffffffff 8 800] ------- [8:255 -1:255 28 0] [0x2 3 1 [1 0] [15 4]] (REQUEST)
r 1.039595710 _2_ RTR  --- 0 AODV 48 [0 ffffffff 8 800] ------- [8:255 -1:255 28 0] [0x2 3 1 [1 0] [15 4]] (REQUEST)
r 1.039726087 _16_ RTR  --- 0 AODV 48 [0 ffffffff 11 800] ------- [17:255 -1:255 29 0] [0x2 2 1 [1 0] [15 4]] (REQUEST)
r 1.039726087 _18_ RTR  --- 0 AODV 48 [0 ffffffff 11 800] ------- [17:255 -1:255 29 0] [0x2 2 1 [1 0] [15 4]] (REQUEST)
r 1.039726420 _15_ RTR  --- 0 AODV 48 [0 ffffffff 11 800] ------- [17:255 -1:255 29 0] [0x2 2 1 [1 0] [15 4]] (REQUEST)
s 1.040267930 _6_ RTR  --- 0 AODV 48 [0 ffffffff c 800] ------- [6:255 -1:255 28 0] [0x2 3 1 [1 0] [15 4]] (REQUEST)
r 1.042011508 _18_ RTR  --- 0 AODV 48 [0 ffffffff 13 800] ------- [19:255 -1:255 28 0] [0x2 3 1 [1 0] [15 4]] (REQUEST)
r 1.042166091 _8_ RTR  --- 0 AODV 48 [0 ffffffff 9 800] ------- [9:255 -1:255 28 0] [0x2 3 1 [1 0] [15 4]] (REQUEST)
r 1.042166174 _4_ RTR  --- 0 AODV 48 [0 ffffffff 9 800] ------- [9:255 -1:255 28 0] [0x2 3 1 [1 0] [15 4]] (REQUEST)
r 1.042166291 _3_ RTR  --- 0 AODV 48 [0 ffffffff 9 800] ------- [9:255 -1:255 28 0] [0x2 3 1 [1 0] [15 4]] (REQUEST)
r 1.042166544 _2_ RTR  --- 0 AODV 48 [0 ffffffff 9 800] ------- [9:255 -1:255 28 0] [0x2 3 1 [1 0] [15 4]] (REQUEST)
s 1.042430424 _18_ RTR  --- 0 AODV 48 [0 ffffffff c 800] ------- [18:255 -1:255 28 0] [0x2 3 1 [1 0] [15 4]] (REQUEST)
r 1.045024529 _16_ RTR  --- 0 AODV 48 [0 ffffffff b 800] ------- [11:255 -1:255 29 0] [0x2 2 1 [1 0] [15 4]] (REQUEST)
s 1.045824492 _3_ RTR  --- 0 AODV 48 [0 ffffffff 8 800] ------- [3:255 -1:255 27 0] [0x2 4 1 [1 0] [15 4]] (REQUEST)
r 1.047545422 _13_ RTR  --- 0 AODV 48 [0 ffffffff e 800] ------- [14:255 -1:255 28 0] [0x2 3 1 [1 0] [15 4]] (REQUEST)
r 1.047545505 _9_ RTR  --- 0 AODV 48 [0 ffffffff e 800] ------- [14:255 -1:255 28 0] [0x2 3 1 [1 0] [15 4]] (REQUEST)
r 1.047545505 _19_ RTR  --- 0 AODV 48 [0 ffffffff e 800] ------- [14:255 -1:255 28 0] [0x2 3 1 [1 0] [15 4]] (REQUEST)
r 1.047545622 _8_ RTR  --- 0 AODV 48 [0 ffffffff e 800] ------- [14:255 -1:255 28 0] [0x2 3 1 [1 0] [15 4]] (REQUEST)
r 1.047545622 _18_ RTR  --- 0 AODV 48 [0 ffffffff e 800] ------- [14:255 -1:255 28 0] [0x2 3 1 [1 0] [15 4]] (REQUEST)
r 1.047545922 _4_ RTR  --- 0 AODV 48 [0 ffffffff e 800] ------- [14:255 -1:255 28 0] [0x2 3 1 [1 0] [15 4]] (REQUEST)
r 1.047582401 _11_ RTR  --- 0 AODV 48 [0 ffffffff a 800] ------- [10:255 -1:255 29 0] [0x2 2 1 [1 0] [15 4]] (REQUEST)
r 1.047582485 _5_ RTR  --- 0 AODV 48 [0 ffffffff a 800] ------- [10:255 -1:255 29 0] [0x2 2 1 [1 0] [15 4]] (REQUEST)
r 1.047582485 _15_ RTR  --- 0 AODV 48 [0 ffffffff a 800] ------- [10:255 -1:255 29 0] [0x2 2 1 [1 0] [15 4]] (REQUEST)
r 1.047582602 _6_ RTR  --- 0 AODV 48 [0 ffffffff a 800] ------- [10:255 -1:255 29 0] [0x2 2 1 [1 0] [15 4]] (REQUEST)
r 1.047582602 _16_ RTR  --- 0 AODV 48 [0 ffffffff a 800] ------- [10:255 -1:255 29 0] [0x2 2 1 [1 0] [15 4]] (REQUEST)
r 1.047582901 _0_ RTR  --- 0 AODV 48 [0 ffffffff a 800] ------- [10:255 -1:255 29 0] [0x2 2 1 [1 0] [15 4]] (REQUEST)
s 1.048103538 _4_ RTR  --- 0 AODV 48 [0 ffffffff 8 800] ------- [4:255 -1:255 27 0] [0x2 4 1 [1 0] [15 4]] (REQUEST)
r 1.050524958 _1_ RTR  --- 0 AODV 48 [0 ffffffff 0 800] ------- [0:255 -1:255 28 0] [0x2 3 1 [1 0] [15 4]] (REQUEST)
r 1.050525041 _5_ RTR  --- 0 AODV 48 [0 ffffffff 0 800] ------- [0:255 -1:255 28 0] [0x2 3 1 [1 0] [15 4]] (REQUEST)
r 1.050525291 _2_ RTR  --- 0 AODV 48 [0 ffffffff 0 800] ------- [0:255 -1:255 28 0] [0x2 3 1 [1 0] [15 4]] (REQUEST)
r 1.050578580 _15_ RTR  --- 0 AODV 48 [0 ffffffff 10 800] ------- [16:255 -1:255 29 0] [0x2 2 1 [1 0] [15 4]] (REQUEST)
r 1.050578580 _17_ RTR  --- 0 AODV 48 [0 ffffffff 10 800] ------- [16:255 -1:255 29 0] [0x2 2 1 [1 0] [15 4]] (REQUEST)
r 1.050578664 _11_ RTR  --- 0 AODV 48 [0 ffffffff 10 800] ------- [16:255 -1:255 29 0] [0x2 2 1 [1 0] [15 4]] (REQUEST)
r 1.050578781 _12_ RTR  --- 0 AODV 48 [0 ffffffff 10 800] ------- [16:255 -1:255 29 0] [0x2 2 1 [1 0] [15 4]] (REQUEST)
r 1.050578914 _18_ RTR  --- 0 AODV 48 [0 ffffffff 10 800] ------- [16:255 -1:255 29 0] [0x2 2 1 [1 0] [15 4]] (REQUEST)
r 1.053433871 _3_ RTR  --- 0 AODV 48 [0 ffffffff 4 800] ------- [4:255 -1:255 27 0] [0x2 4 1 [1 0] [15 4]] (REQUEST)
r 1.053433954 _9_ RTR  --- 0 AODV 48 [0 ffffffff 4 800] ------- [4:255 -1:255 27 0] [0x2 4 1 [1 0] [15 4]] (REQUEST)
r 1.053434071 _8_ RTR  --- 0 AODV 48 [0 ffffffff 4 800] ------- [4:255 -1:255 27 0] [0x2 4 1 [1 0] [15 4]] (REQUEST)
r 1.053434204 _2_ RTR  --- 0 AODV 48 [0 ffffffff 4 800] ------- [4:255 -1:255 27 0] [0x2 4 1 [1 0] [15 4]] (REQUEST)
r 1.053434324 _7_ RTR  --- 0 AODV 48 [0 ffffffff 4 800] ------- [4:255 -1:255 27 0] [0x2 4 1 [1 0] [15 4]] (REQUEST)
r 1.053434371 _14_ RTR  --- 0 AODV 48 [0 ffffffff 4 800] ------- [4:255 -1:255 27 0] [0x2 4 1 [1 0] [15 4]] (REQUEST)
s 1.054650303 _6_ AGT  --- 1 tcp 40 [0 0 0 0] ------- [6:0 11:0 32 0] [0 0] 0 0
r 1.054650303 _6_ RTR  --- 1 tcp 40 [0 0 0 0] ------- [6:0 11:0 32 0] [0 0] 0 0
s 1.054650303 _6_ RTR  --- 0 AODV 48 [0 0 0 0] ------- [6:255 -1:255 30 0] [0x2 1 1 [11 0] [6 4]] (REQUEST)
r 1.056208757 _17_ RTR  --- 0 AODV 48 [0 ffffffff 12 800] ------- [18:255 -1:255 28 0] [0x2 3 1 [1 0] [15 4]] (REQUEST)
r 1.056208757 _19_ RTR  --- 0 AODV 48 [0 ffffffff 12 800] ------- [18:255 -1:255 28 0] [0x2 3 1 [1 0] [15 4]] (REQUEST)
r 1.056208841 _13_ RTR  --- 0 AODV 48 [0 ffffffff 12 800] ------- [18:255 -1:255 28 0] [0x2 3 1 [1 0] [15 4]] (REQUEST)
r 1.056208958 _14_ RTR  --- 0 AODV 48 [0 ffffffff 12 800] ------- [18:255 -1:255 28 0] [0x2 3 1 [1 0] [15 4]] (REQUEST)
r 1.056208958 _12_ RTR  --- 0 AODV 48 [0 ffffffff 12 800] ------- [18:255 -1:255 28 0] [0x2 3 1 [1 0] [15 4]] (REQUEST)
r 1.056209091 _16_ RTR  --- 0 AODV 48 [0 ffffffff 12 800] ------- [18:255 -1:255 28 0] [0x2 3 1 [1 0] [15 4]] (REQUEST)
r 1.056209210 _11_ RTR  --- 0 AODV 48 [0 ffffffff 12 800] ------- [18:255 -1:255 28 0] [0x2 3 1 [1 0] [15 4]] (REQUEST)
r 1.056209257 _8_ RTR  --- 0 AODV 48 [0 ffffffff 12 800] ------- [18:255 -1:255 28 0] [0x2 3 1 [1 0] [15 4]] (REQUEST)
r 1.059212636 _5_ RTR  --- 0 AODV 48 [0 ffffffff 6 800] ------- [6:255 -1:255 30 0] [0x2 1 1 [11 0] [6 4]] (REQUEST)
r 1.059212636 _7_ RTR  --- 0 AODV 48 [0 ffffffff 6 800] ------- [6:255 -1:255 30 0] [0x2 1 1 [11 0] [6 4]] (REQUEST)
r 1.059212719 _1_ RTR  --- 0 AODV 48 [0 ffffffff 6 800] ------- [6:255 -1:255 30 0] [0x2 1 1 [11 0] [6 4]] (REQUEST)
r 1.059212719 _11_ RTR  --- 0 AODV 48 [0 ffffffff 6 800] ------- [6:255 -1:255 30 0] [0x2 1 1 [11 0] [6 4]] (REQUEST)
s 1.059212719 _11_ RTR  --- 0 AODV 44 [0 0 0 0] ------- [11:255 6:255 30 6] [0x4 1 [11 4] 10.000000] (REPLY)
r 1.059212836 _2_ RTR  --- 0 AODV 48 [0 ffffffff 6 800] ------- [6:255 -1:255 30 0] [0x2 1 1 [11 0] [6 4]] (REQUEST)
r 1.059212836 _0_ RTR  --- 0 AODV 48 [0 ffffffff 6 800] ------- [6:255 -1:255 30 0] [0x2 1 1 [11 0] [6 4]] (REQUEST)
r 1.059212836 _10_ RTR  --- 0 AODV 48 [0 ffffffff 6 800] ------- [6:255 -1:255 30 0] [0x2 1 1 [11 0] [6 4]] (REQUEST)
r 1.059212836 _12_ RTR  --- 0 AODV 48 [0 ffffffff 6 800] ------- [6:255 -1:255 30 0] [0x2 1 1 [11 0] [6 4]] (REQUEST)
r 1.059212969 _8_ RTR  --- 0 AODV 48 [0 ffffffff 6 800] ------- [6:255 -1:255 30 0] [0x2 1 1 [11 0] [6 4]] (REQUEST)
r 1.059213089 _3_ RTR  --- 0 AODV 48 [0 ffffffff 6 800] ------- [6:255 -1:255 30 0] [0x2 1 1 [11 0] [6 4]] (REQUEST)
r 1.059213089 _13_ RTR  --- 0 AODV 48 [0 ffffffff 6 800] ------- [6:255 -1:255 30 0] [0x2 1 1 [11 0] [6 4]] (REQUEST)
r 1.059213136 _16_ RTR  --- 0 AODV 48 [0 ffffffff 6 800] ------- [6:255 -1:255 30 0] [0x2 1 1 [11 0] [6 4]] (REQUEST)
s 1.059877570 _1_ RTR  --- 0 AODV 48 [0 ffffffff 6 800] ------- [1:255 -1:255 29 0] [0x2 2 1 [11 0] [6 4]] (REQUEST)
s 1.061271961 _16_ RTR  --- 0 AODV 48 [0 ffffffff 6 800] ------- [16:255 -1:255 29 0] [0x2 2 1 [11 0] [6 4]] (REQUEST)
r 1.061491547 _6_ RTR  --- 0 AODV 48 [0 ffffffff 7 800] ------- [7:255 -1:255 28 0] [0x2 3 1 [1 0] [15 4]] (REQUEST)
r 1.061491547 _8_ RTR  --- 0 AODV 48 [0 ffffffff 7 800] ------- [7:255 -1:255 28 0] [0x2 3 1 [1 0] [15 4]] (REQUEST)
r 1.061491631 _2_ RTR  --- 0 AODV 48 [0 ffffffff 7 800] ------- [7:255 -1:255 28 0] [0x2 3 1 [1 0] [15 4]] (REQUEST)
r 1.061491631 _12_ RTR  --- 0 AODV 48 [0 ffffffff 7 800] ------- [7:255 -1:255 28 0] [0x2 3 1 [1 0] [15 4]] (REQUEST)
r 1.061491748 _3_ RTR  --- 0 AODV 48 [0 ffffffff 7 800] ------- [7:255 -1:255 28 0] [0x2 3 1 [1 0] [15 4]] (REQUEST)
r 1.061491748 _1_ RTR  --- 0 AODV 48 [0 ffffffff 7 800] ------- [7:255 -1:255 28 0] [0x2 3 1 [1 0] [15 4]] (REQUEST)
r 1.061491748 _11_ RTR  --- 0 AODV 48 [0 ffffffff 7 800] ------- [7:255 -1:255 28 0] [0x2 3 1 [1 0] [15 4]] (REQUEST)
r 1.061491748 _13_ RTR  --- 0 AODV 48 [0 ffffffff 7 800] ------- [7:255 -1:255 28 0] [0x2 3 1 [1 0] [15 4]] (REQUEST)
r 1.061491881 _5_ RTR  --- 0 AODV 48 [0 ffffffff 7 800] ------- [7:255 -1:255 28 0] [0x2 3 1 [1 0] [15 4]] (REQUEST)
r 1.061491881 _9_ RTR  --- 0 AODV 48 [0 ffffffff 7 800] ------- [7:255 -1:255 28 0] [0x2 3 1 [1 0] [15 4]] (REQUEST)
r 1.061492000 _4_ RTR  --- 0 AODV 48 [0 ffffffff 7 800] ------- [7:255 -1:255 28 0] [0x2 3 1 [1 0] [15 4]] (REQUEST)
r 1.061492000 _0_ RTR  --- 0 AODV 48 [0 ffffffff 7 800] ------- [7:255 -1:255 28 0] [0x2 3 1 [1 0] [15 4]] (REQUEST)
r 1.061492000 _10_ RTR  --- 0 AODV 48 [0 ffffffff 7 800] ------- [7:255 -1:255 28 0] [0x2 3 1 [1 0] [15 4]] (REQUEST)
r 1.061492000 _14_ RTR  --- 0 AODV 48 [0 ffffffff 7 800] ------- [7:255 -1:255 28 0] [0x2 3 1 [1 0] [15 4]] (REQUEST)
r 1.061492047 _17_ RTR  --- 0 AODV 48 [0 ffffffff 7 800] ------- [7:255 -1:255 28 0] [0x2 3 1 [1 0] [15 4]] (REQUEST)
s 1.061841578 _8_ RTR  --- 0 AODV 48 [0 ffffffff 6 800] ------- [8:255 -1:255 29 0] [0x2 2 1 [11 0] [6 4]] (REQUEST)
s 1.064008251 _3_ RTR  --- 0 AODV 48 [0 ffffffff 6 800] ------- [3:255 -1:255 29 0] [0x2 2 1 [11 0] [6 4]] (REQUEST)
r 1.064119903 _0_ RTR  --- 0 AODV 48 [0 ffffffff 1 800] ------- [1:255 -1:255 29 0] [0x2 2 1 [11 0] [6 4]] (REQUEST)
r 1.064119903 _2_ RTR  --- 0 AODV 48 [0 ffffffff 1 800] ------- [1:255 -1:255 29 0] [0x2 2 1 [11 0] [6 4]] (REQUEST)
r 1.064119986 _6_ RTR  --- 0 AODV 48 [0 ffffffff 1 800] ------- [1:255 -1:255 29 0] [0x2 2 1 [11 0] [6 4]] (REQUEST)
r 1.064120103 _5_ RTR  --- 0 AODV 48 [0 ffffffff 1 800] ------- [1:255 -1:255 29 0] [0x2 2 1 [11 0] [6 4]] (REQUEST)
r 1.064120103 _7_ RTR  --- 0 AODV 48 [0 ffffffff 1 800] ------- [1:255 -1:255 29 0] [0x2 2 1 [11 0] [6 4]] (REQUEST)
r 1.064120236 _3_ RTR  --- 0 AODV 48 [0 ffffffff 1 800] ------- [1:255 -1:255 29 0] [0x2 2 1 [11 0] [6 4]] (REQUEST)
r 1.064120356 _8_ RTR  --- 0 AODV 48 [0 ffffffff 1 800] ------- [1:255 -1:255 29 0] [0x2 2 1 [11 0] [6 4]] (REQUEST)
r 1.064120403 _11_ RTR  --- 0 AODV 48 [0 ffffffff 1 800] ------- [1:255 -1:255 29 0] [0x2 2 1 [11 0] [6 4]] (REQUEST)
s 1.064393135 _0_ RTR  --- 0 AODV 48 [0 ffffffff 6 800] ------- [0:255 -1:255 29 0] [0x2 2 1 [11 0] [6 4]] (REQUEST)
s 1.064566162 _7_ RTR  --- 0 AODV 48 [0 ffffffff 6 800] ------- [7:255 -1:255 29 0] [0x2 2 1 [11 0] [6 4]] (REQUEST)
s 1.064614953 _5_ RTR  --- 0 AODV 48 [0 ffffffff 6 800] ------- [5:255 -1:255 29 0] [0x2 2 1 [11 0] [6 4]] (REQUEST)
s 1.066510710 _12_ RTR  --- 0 AODV 48 [0 ffffffff 6 800] ------- [12:255 -1:255 29 0] [0x2 2 1 [11 0] [6 4]] (REQUEST)
r 1.066602294 _15_ RTR  --- 0 AODV 48 [0 ffffffff 10 800] ------- [16:255 -1:255 29 0] [0x2 2 1 [11 0] [6 4]] (REQUEST)
r 1.066602294 _17_ RTR  --- 0 AODV 48 [0 ffffffff 10 800] ------- [16:255 -1:255 29 0] [0x2 2 1 [11 0] [6 4]] (REQUEST)
r 1.066602377 _11_ RTR  --- 0 AODV 48 [0 ffffffff 10 800] ------- [16:255 -1:255 29 0] [0x2 2 1 [11 0] [6 4]] (REQUEST)
r 1.066602494 _12_ RTR  --- 0 AODV 48 [0 ffffffff 10 800] ------- [16:255 -1:255 29 0] [0x2 2 1 [11 0] [6 4]] (REQUEST)
r 1.066602494 _10_ RTR  --- 0 AODV 48 [0 ffffffff 10 800] ------- [16:255 -1:255 29 0] [0x2 2 1 [11 0] [6 4]] (REQUEST)
r 1.066602627 _18_ RTR  --- 0 AODV 48 [0 ffffffff 10 800] ------- [16:255 -1:255 29 0] [0x2 2 1 [11 0] [6 4]] (REQUEST)
r 1.066602747 _13_ RTR  --- 0 AODV 48 [0 ffffffff 10 800] ------- [16:255 -1:255 29 0] [0x2 2 1 [11 0] [6 4]] (REQUEST)
r 1.066602794 _6_ RTR  --- 0 AODV 48 [0 ffffffff 10 800] ------- [16:255 -1:255 29 0] [0x2 2 1 [11 0] [6 4]] (REQUEST)
s 1.066710021 _13_ RTR  --- 0 AODV 48 [0 ffffffff 6 800] ------- [13:255 -1:255 29 0] [0x2 2 1 [11 0] [6 4]] (REQUEST)
s 1.067141455 _15_ RTR  --- 0 AODV 48 [0 ffffffff 10 800] ------- [15:255 -1:255 28 0] [0x2 3 1 [11 0] [6 4]] (REQUEST)
s 1.068022632 _10_ RTR  --- 0 AODV 48 [0 ffffffff 6 800] ------- [10:255 -1:255 29 0] [0x2 2 1 [11 0] [6 4]] (REQUEST)
s 1.068746001 _18_ RTR  --- 0 AODV 48 [0 ffffffff 10 800] ------- [18:255 -1:255 28 0] [0x2 3 1 [11 0] [6 4]] (REQUEST)
s 1.068931143 _2_ RTR  --- 0 AODV 48 [0 ffffffff 6 800] ------- [2:255 -1:255 29 0] [0x2 2 1 [11 0] [6 4]] (REQUEST)
r 1.069177286 _6_ RTR  --- 0 AODV 48 [0 ffffffff 5 800] ------- [5:255 -1:255 29 0] [0x2 2 1 [11 0] [6 4]] (REQUEST)
r 1.069177370 _0_ RTR  --- 0 AODV 48 [0 ffffffff 5 800] ------- [5:255 -1:255 29 0] [0x2 2 1 [11 0] [6 4]] (REQUEST)
r 1.069177370 _10_ RTR  --- 0 AODV 48 [0 ffffffff 5 800] ------- [5:255 -1:255 29 0] [0x2 2 1 [11 0] [6 4]] (REQUEST)
r 1.069177487 _1_ RTR  --- 0 AODV 48 [0 ffffffff 5 800] ------- [5:255 -1:255 29 0] [0x2 2 1 [11 0] [6 4]] (REQUEST)
r 1.069177487 _11_ RTR  --- 0 AODV 48 [0 ffffffff 5 800] ------- [5:255 -1:255 29 0] [0x2 2 1 [11 0] [6 4]] (REQUEST)
r 1.069177620 _7_ RTR  --- 0 AODV 48 [0 ffffffff 5 800] ------- [5:255 -1:255 29 0] [0x2 2 1 [11 0] [6 4]] (REQUEST)
r 1.069177739 _2_ RTR  --- 0 AODV 48 [0 ffffffff 5 800] ------- [5:255 -1:255 29 0] [0x2 2 1 [11 0] [6 4]] (REQUEST)
r 1.069177739 _12_ RTR  --- 0 AODV 48 [0 ffffffff 5 800] ------- [5:255 -1:255 29 0] [0x2 2 1 [11 0] [6 4]] (REQUEST)
r 1.069177786 _15_ RTR  --- 0 AODV 48 [0 ffffffff 5 800] ------- [5:255 -1:255 29 0] [0x2 2 1 [11 0] [6 4]] (REQUEST)
s 1.070193636 _17_ RTR  --- 0 AODV 48 [0 ffffffff 10 800] ------- [17:255 -1:255 28 0] [0x2 3 1 [11 0] [6 4]] (REQUEST)
r 1.071400354 _12_ RTR  --- 0 AODV 48 [0 ffffffff d 800] ------- [13:255 -1:255 29 0] [0x2 2 1 [11 0] [6 4]] (REQUEST)
r 1.071400354 _14_ RTR  --- 0 AODV 48 [0 ffffffff d 800] ------- [13:255 -1:255 29 0] [0x2 2 1 [11 0] [6 4]] (REQUEST)
r 1.071400438 _8_ RTR  --- 0 AODV 48 [0 ffffffff d 800] ------- [13:255 -1:255 29 0] [0x2 2 1 [11 0] [6 4]] (REQUEST)
r 1.071400438 _18_ RTR  --- 0 AODV 48 [0 ffffffff d 800] ------- [13:255 -1:255 29 0] [0x2 2 1 [11 0] [6 4]] (REQUEST)
r 1.071400554 _9_ RTR  --- 0 AODV 48 [0 ffffffff d 800] ------- [13:255 -1:255 29 0] [0x2 2 1 [11 0] [6 4]] (REQUEST)
r 1.071400554 _7_ RTR  --- 0 AODV 48 [0 ffffffff d 800] ------- [13:255 -1:255 29 0] [0x2 2 1 [11 0] [6 4]] (REQUEST)
r 1.071400554 _17_ RTR  --- 0 AODV 48 [0 ffffffff d 800] ------- [13:255 -1:255 29 0] [0x2 2 1 [11 0] [6 4]] (REQUEST)
r 1.071400554 _19_ RTR  --- 0 AODV 48 [0 ffffffff d 800] ------- [13:255 -1:255 29 0] [0x2 2 1 [11 0] [6 4]] (REQUEST)
r 1.071400688 _11_ RTR  --- 0 AODV 48 [0 ffffffff d 800] ------- [13:255 -1:255 29 0] [0x2 2 1 [11 0] [6 4]] (REQUEST)
r 1.071400807 _6_ RTR  --- 0 AODV 48 [0 ffffffff d 800] ------- [13:255 -1:255 29 0] [0x2 2 1 [11 0] [6 4]] (REQUEST)
r 1.071400807 _16_ RTR  --- 0 AODV 48 [0 ffffffff d 800] ------- [13:255 -1:255 29 0] [0x2 2 1 [11 0] [6 4]] (REQUEST)
r 1.071400854 _3_ RTR  --- 0 AODV 48 [0 ffffffff d 800] ------- [13:255 -1:255 29 0] [0x2 2 1 [11 0] [6 4]] (REQUEST)
s 1.071599898 _19_ RTR  --- 0 AODV 48 [0 ffffffff d 800] ------- [19:255 -1:255 28 0] [0x2 3 1 [11 0] [6 4]] (REQUEST)
s 1.072991746 _14_ RTR  --- 0 AODV 48 [0 ffffffff d 800] ------- [14:255 -1:255 28 0] [0x2 3 1 [11 0] [6 4]] (REQUEST)
r 1.073628335 _17_ RTR  --- 0 AODV 48 [0 ffffffff 12 800] ------- [18:255 -1:255 28 0] [0x2 3 1 [11 0] [6 4]] (REQUEST)
r 1.073628335 _19_ RTR  --- 0 AODV 48 [0 ffffffff 12 800] ------- [18:255 -1:255 28 0] [0x2 3 1 [11 0] [6 4]] (REQUEST)
r 1.073628418 _13_ RTR  --- 0 AODV 48 [0 ffffffff 12 800] ------- [18:255 -1:255 28 0] [0x2 3 1 [11 0] [6 4]] (REQUEST)
r 1.073628535 _14_ RTR  --- 0 AODV 48 [0 ffffffff 12 800] ------- [18:255 -1:255 28 0] [0x2 3 1 [11 0] [6 4]] (REQUEST)
r 1.073672965 _11_ RTR  --- 0 AODV 48 [0 ffffffff a 800] ------- [10:255 -1:255 29 0] [0x2 2 1 [11 0] [6 4]] (REQUEST)
r 1.073673049 _5_ RTR  --- 0 AODV 48 [0 ffffffff a 800] ------- [10:255 -1:255 29 0] [0x2 2 1 [11 0] [6 4]] (REQUEST)
r 1.073673049 _15_ RTR  --- 0 AODV 48 [0 ffffffff a 800] ------- [10:255 -1:255 29 0] [0x2 2 1 [11 0] [6 4]] (REQUEST)
r 1.073673166 _6_ RTR  --- 0 AODV 48 [0 ffffffff a 800] ------- [10:255 -1:255 29 0] [0x2 2 1 [11 0] [6 4]] (REQUEST)
r 1.073673465 _0_ RTR  --- 0 AODV 48 [0 ffffffff a 800] ------- [10:255 -1:255 29 0] [0x2 2 1 [11 0] [6 4]] (REQUEST)
s 1.074098109 _9_ RTR  --- 0 AODV 48 [0 ffffffff d 800] ------- [9:255 -1:255 28 0] [0x2 3 1 [11 0] [6 4]] (REQUEST)
r 1.075931468 _1_ RTR  --- 0 AODV 48 [0 ffffffff 0 800] ------- [0:255 -1:255 29 0] [0x2 2 1 [11 0] [6 4]] (REQUEST)
r 1.075931551 _5_ RTR  --- 0 AODV 48 [0 ffffffff 0 800] ------- [0:255 -1:255 29 0] [0x2 2 1 [11 0] [6 4]] (REQUEST)
r 1.075931668 _6_ RTR  --- 0 AODV 48 [0 ffffffff 0 800] ------- [0:255 -1:255 29 0] [0x2 2 1 [11 0] [6 4]] (REQUEST)
r 1.075954080 _13_ RTR  --- 0 AODV 48 [0 ffffffff e 800] ------- [14:255 -1:255 28 0] [0x2 3 1 [11 0] [6 4]] (REQUEST)
r 1.075954163 _9_ RTR  --- 0 AODV 48 [0 ffffffff e 800] ------- [14:255 -1:255 28 0] [0x2 3 1 [11 0] [6 4]] (REQUEST)
r 1.075954163 _19_ RTR  --- 0 AODV 48 [0 ffffffff e 800] ------- [14:255 -1:255 28 0] [0x2 3 1 [11 0] [6 4]] (REQUEST)
r 1.075954280 _8_ RTR  --- 0 AODV 48 [0 ffffffff e 800] ------- [14:255 -1:255 28 0] [0x2 3 1 [11 0] [6 4]] (REQUEST)
r 1.075954280 _18_ RTR  --- 0 AODV 48 [0 ffffffff e 800] ------- [14:255 -1:255 28 0] [0x2 3 1 [11 0] [6 4]] (REQUEST)
r 1.075954532 _17_ RTR  --- 0 AODV 48 [0 ffffffff e 800] ------- [14:255 -1:255 28 0] [0x2 3 1 [11 0] [6 4]] (REQUEST)
r 1.078980443 _8_ RTR  --- 0 AODV 48 [0 ffffffff 9 800] ------- [9:255 -1:255 28 0] [0x2 3 1 [11 0] [6 4]] (REQUEST)
r 1.078980526 _4_ RTR  --- 0 AODV 48 [0 ffffffff 9 800] ------- [9:255 -1:255 28 0] [0x2 3 1 [11 0] [6 4]] (REQUEST)
r 1.078980526 _14_ RTR  --- 0 AODV 48 [0 ffffffff 9 800] ------- [9:255 -1:255 28 0] [0x2 3 1 [11 0] [6 4]] (REQUEST)
r 1.078980643 _3_ RTR  --- 0 AODV 48 [0 ffffffff 9 800] ------- [9:255 -1:255 28 0] [0x2 3 1 [11 0] [6 4]] (REQUEST)
r 1.078980643 _13_ RTR  --- 0 AODV 48 [0 ffffffff 9 800] ------- [9:255 -1:255 28 0] [0x2 3 1 [11 0] [6 4]] (REQUEST)
r 1.078980776 _7_ RTR  --- 0 AODV 48 [0 ffffffff 9 800] ------- [9:255 -1:255 28 0] [0x2 3 1 [11 0] [6 4]] (REQUEST)
r 1.078980896 _2_ RTR  --- 0 AODV 48 [0 ffffffff 9 800] ------- [9:255 -1:255 28 0] [0x2 3 1 [11 0] [6 4]] (REQUEST)
r 1.078980896 _12_ RTR  --- 0 AODV 48 [0 ffffffff 9 800] ------- [9:255 -1:255 28 0] [0x2 3 1 [11 0] [6 4]] (REQUEST)
r 1.078980943 _19_ RTR  --- 0 AODV 48 [0 ffffffff 9 800] ------- [9:255 -1:255 28 0] [0x2 3 1 [11 0] [6 4]] (REQUEST)
r 1.081429476 _1_ RTR  --- 0 AODV 48 [0 ffffffff 2 800] ------- [2:255 -1:255 29 0] [0x2 2 1 [11 0] [6 4]] (REQUEST)
r 1.081429476 _3_ RTR  --- 0 AODV 48 [0 ffffffff 2 800] ------- [2:255 -1:255 29 0] [0x2 2 1 [11 0] [6 4]] (REQUEST)
r 1.081429809 _4_ RTR  --- 0 AODV 48 [0 ffffffff 2 800] ------- [2:255 -1:255 29 0] [0x2 2 1 [11 0] [6 4]] (REQUEST)
s 1.083306830 _4_ RTR  --- 0 AODV 48 [0 ffffffff 9 800] ------- [4:255 -1:255 27 0] [0x2 4 1 [11 0] [6 4]] (REQUEST)
r 1.085251969 _16_ RTR  --- 0 AODV 48 [0 ffffffff 11 800] ------- [17:255 -1:255 28 0] [0x2 3 1 [11 0] [6 4]] (REQUEST)
r 1.085251969 _18_ RTR  --- 0 AODV 48 [0 ffffffff 11 800] ------- [17:255 -1:255 28 0] [0x2 3 1 [11 0] [6 4]] (REQUEST)
r 1.085252302 _15_ RTR  --- 0 AODV 48 [0 ffffffff 11 800] ------- [17:255 -1:255 28 0] [0x2 3 1 [11 0] [6 4]] (REQUEST)
r 1.085347911 _7_ RTR  --- 0 AODV 48 [0 ffffffff 8 800] ------- [8:255 -1:255 29 0] [0x2 2 1 [11 0] [6 4]] (REQUEST)
r 1.085347911 _9_ RTR  --- 0 AODV 48 [0 ffffffff 8 800] ------- [8:255 -1:255 29 0] [0x2 2 1 [11 0] [6 4]] (REQUEST)
r 1.085347995 _3_ RTR  --- 0 AODV 48 [0 ffffffff 8 800] ------- [8:255 -1:255 29 0] [0x2 2 1 [11 0] [6 4]] (REQUEST)
r 1.085348112 _4_ RTR  --- 0 AODV 48 [0 ffffffff 8 800] ------- [8:255 -1:255 29 0] [0x2 2 1 [11 0] [6 4]] (REQUEST)
r 1.085348112 _2_ RTR  --- 0 AODV 48 [0 ffffffff 8 800] ------- [8:255 -1:255 29 0] [0x2 2 1 [11 0] [6 4]] (REQUEST)
r 1.089917163 _3_ RTR  --- 0 AODV 48 [0 ffffffff 4 800] ------- [4:255 -1:255 27 0] [0x2 4 1 [11 0] [6 4]] (REQUEST)
r 1.089917247 _9_ RTR  --- 0 AODV 48 [0 ffffffff 4 800] ------- [4:255 -1:255 27 0] [0x2 4 1 [11 0] [6 4]] (REQUEST)
r 1.089917364 _8_ RTR  --- 0 AODV 48 [0 ffffffff 4 800] ------- [4:255 -1:255 27 0] [0x2 4 1 [11 0] [6 4]] (REQUEST)
r 1.089917497 _2_ RTR  --- 0 AODV 48 [0 ffffffff 4 800] ------- [4:255 -1:255 27 0] [0x2 4 1 [11 0] [6 4]] (REQUEST)
r 1.089917616 _7_ RTR  --- 0 AODV 48 [0 ffffffff 4 800] ------- [4:255 -1:255 27 0] [0x2 4 1 [11 0] [6 4]] (REQUEST)
r 1.089917663 _14_ RTR  --- 0 AODV 48 [0 ffffffff 4 800] ------- [4:255 -1:255 27 0] [0x2 4 1 [11 0] [6 4]] (REQUEST)
r 1.097346231 _18_ RTR  --- 0 AODV 48 [0 ffffffff 13 800] ------- [19:255 -1:255 28 0] [0x2 3 1 [11 0] [6 4]] (REQUEST)
r 1.097346314 _14_ RTR  --- 0 AODV 48 [0 ffffffff 13 800] ------- [19:255 -1:255 28 0] [0x2 3 1 [11 0] [6 4]] (REQUEST)
r 1.097346431 _13_ RTR  --- 0 AODV 48 [0 ffffffff 13 800] ------- [19:255 -1:255 28 0] [0x2 3 1 [11 0] [6 4]] (REQUEST)
r 1.097346564 _17_ RTR  --- 0 AODV 48 [0 ffffffff 13 800] ------- [19:255 -1:255 28 0] [0x2 3 1 [11 0] [6 4]] (REQUEST)
r 1.097346684 _12_ RTR  --- 0 AODV 48 [0 ffffffff 13 800] ------- [19:255 -1:255 28 0] [0x2 3 1 [11 0] [6 4]] (REQUEST)
r 1.097346731 _9_ RTR  --- 0 AODV 48 [0 ffffffff 13 800] ------- [19:255 -1:255 28 0] [0x2 3 1 [11 0] [6 4]] (REQUEST)
s 1.102201463 _2_ AGT  --- 2 tcp 40 [0 0 0 0] ------- [2:0 13:2 32 0] [0 0] 0 0
r 1.102201463 _2_ RTR  --- 2 tcp 40 [0 0 0 0] ------- [2:0 13:2 32 0] [0 0] 0 0
s 1.102201463 _2_ RTR  --- 0 AODV 48 [0 0 0 0] ------- [2:255 -1:255 30 0] [0x2 1 1 [13 0] [2 4]] (REQUEST)
r 1.107403796 _1_ RTR  --- 0 AODV 48 [0 ffffffff 2 800] ------- [2:255 -1:255 30 0] [0x2 1 1 [13 0] [2 4]] (REQUEST)
r 1.107403796 _3_ RTR  --- 0 AODV 48 [0 ffffffff 2 800] ------- [2:255 -1:255 30 0] [0x2 1 1 [13 0] [2 4]] (REQUEST)
r 1.107403880 _7_ RTR  --- 0 AODV 48 [0 ffffffff 2 800] ------- [2:255 -1:255 30 0] [0x2 1 1 [13 0] [2 4]] (REQUEST)
r 1.107403997 _6_ RTR  --- 0 AODV 48 [0 ffffffff 2 800] ------- [2:255 -1:255 30 0] [0x2 1 1 [13 0] [2 4]] (REQUEST)
r 1.107403997 _8_ RTR  --- 0 AODV 48 [0 ffffffff 2 800] ------- [2:255 -1:255 30 0] [0x2 1 1 [13 0] [2 4]] (REQUEST)
r 1.107404130 _0_ RTR  --- 0 AODV 48 [0 ffffffff 2 800] ------- [2:255 -1:255 30 0] [0x2 1 1 [13 0] [2 4]] (REQUEST)
r 1.107404130 _4_ RTR  --- 0 AODV 48 [0 ffffffff 2 800] ------- [2:255 -1:255 30 0] [0x2 1 1 [13 0] [2 4]] (REQUEST)
r 1.107404249 _5_ RTR  --- 0 AODV 48 [0 ffffffff 2 800] ------- [2:255 -1:255 30 0] [0x2 1 1 [13 0] [2 4]] (REQUEST)
r 1.107404249 _9_ RTR  --- 0 AODV 48 [0 ffffffff 2 800] ------- [2:255 -1:255 30 0] [0x2 1 1 [13 0] [2 4]] (REQUEST)
r 1.107404296 _12_ RTR  --- 0 AODV 48 [0 ffffffff 2 800] ------- [2:255 -1:255 30 0] [0x2 1 1 [13 0] [2 4]] (REQUEST)
s 1.107957563 _8_ RTR  --- 0 AODV 48 [0 ffffffff 2 800] ------- [8:255 -1:255 29 0] [0x2 2 1 [13 0] [2 4]] (REQUEST)
s 1.108708057 _6_ RTR  --- 0 AODV 48 [0 ffffffff 2 800] ------- [6:255 -1:255 29 0] [0x2 2 1 [13 0] [2 4]] (REQUEST)
s 1.108900790 _1_ RTR  --- 0 AODV 48 [0 ffffffff 2 800] ------- [1:255 -1:255 29 0] [0x2 2 1 [13 0] [2 4]] (REQUEST)
s 1.110458020 _4_ RTR  --- 0 AODV 48 [0 ffffffff 2 800] ------- [4:255 -1:255 29 0] [0x2 2 1 [13 0] [2 4]] (REQUEST)
s 1.110710804 _5_ RTR  --- 0 AODV 48 [0 ffffffff 2 800] ------- [5:255 -1:255 29 0] [0x2 2 1 [13 0] [2 4]] (REQUEST)