s 1.028573734 _33_ AGT  --- 0 tcp 40 [0 0 0 0] ------- [33:0 29:0 32 0] [0 0] 0 0
r 1.028573734 _33_ RTR  --- 0 tcp 40 [0 0 0 0] ------- [33:0 29:0 32 0] [0 0] 0 0
s 1.028573734 _33_ RTR  --- 0 AODV 48 [0 0 0 0] ------- [33:255 -1:255 30 0] [0x2 1 1 [29 0] [33 4]] (REQUEST)
r 1.031855901 _32_ RTR  --- 0 AODV 48 [0 ffffffff 21 800] ------- [33:255 -1:255 30 0] [0x2 1 1 [29 0] [33 4]] (REQUEST)
r 1.031855901 _34_ RTR  --- 0 AODV 48 [0 ffffffff 21 800] ------- [33:255 -1:255 30 0] [0x2 1 1 [29 0] [33 4]] (REQUEST)
r 1.031856011 _43_ RTR  --- 0 AODV 48 [0 ffffffff 21 800] ------- [33:255 -1:255 30 0] [0x2 1 1 [29 0] [33 4]] (REQUEST)
r 1.031856014 _23_ RTR  --- 0 AODV 48 [0 ffffffff 21 800] ------- [33:255 -1:255 30 0] [0x2 1 1 [29 0] [33 4]] (REQUEST)
r 1.031856057 _42_ RTR  --- 0 AODV 48 [0 ffffffff 21 800] ------- [33:255 -1:255 30 0] [0x2 1 1 [29 0] [33 4]] (REQUEST)
r 1.031856057 _44_ RTR  --- 0 AODV 48 [0 ffffffff 21 800] ------- [33:255 -1:255 30 0] [0x2 1 1 [29 0] [33 4]] (REQUEST)
r 1.031856060 _24_ RTR  --- 0 AODV 48 [0 ffffffff 21 800] ------- [33:255 -1:255 30 0] [0x2 1 1 [29 0] [33 4]] (REQUEST)
r 1.031856060 _22_ RTR  --- 0 AODV 48 [0 ffffffff 21 800] ------- [33:255 -1:255 30 0] [0x2 1 1 [29 0] [33 4]] (REQUEST)
r 1.031856068 _31_ RTR  --- 0 AODV 48 [0 ffffffff 21 800] ------- [33:255 -1:255 30 0] [0x2 1 1 [29 0] [33 4]] (REQUEST)
r 1.031856068 _35_ RTR  --- 0 AODV 48 [0 ffffffff 21 800] ------- [33:255 -1:255 30 0] [0x2 1 1 [29 0] [33 4]] (REQUEST)
r 1.031856168 _41_ RTR  --- 0 AODV 48 [0 ffffffff 21 800] ------- [33:255 -1:255 30 0] [0x2 1 1 [29 0] [33 4]] (REQUEST)
r 1.031856168 _45_ RTR  --- 0 AODV 48 [0 ffffffff 21 800] ------- [33:255 -1:255 30 0] [0x2 1 1 [29 0] [33 4]] (REQUEST)
r 1.031856170 _25_ RTR  --- 0 AODV 48 [0 ffffffff 21 800] ------- [33:255 -1:255 30 0] [0x2 1 1 [29 0] [33 4]] (REQUEST)
r 1.031856170 _21_ RTR  --- 0 AODV 48 [0 ffffffff 21 800] ------- [33:255 -1:255 30 0] [0x2 1 1 [29 0] [33 4]] (REQUEST)
r 1.031856234 _30_ RTR  --- 0 AODV 48 [0 ffffffff 21 800] ------- [33:255 -1:255 30 0] [0x2 1 1 [29 0] [33 4]] (REQUEST)
r 1.031856234 _36_ RTR  --- 0 AODV 48 [0 ffffffff 21 800] ------- [33:255 -1:255 30 0] [0x2 1 1 [29 0] [33 4]] (REQUEST)
r 1.031856288 _53_ RTR  --- 0 AODV 48 [0 ffffffff 21 800] ------- [33:255 -1:255 30 0] [0x2 1 1 [29 0] [33 4]] (REQUEST)
r 1.031856291 _13_ RTR  --- 0 AODV 48 [0 ffffffff 21 800] ------- [33:255 -1:255 30 0] [0x2 1 1 [29 0] [33 4]] (REQUEST)
r 1.031856306 _40_ RTR  --- 0 AODV 48 [0 ffffffff 21 800] ------- [33:255 -1:255 30 0] [0x2 1 1 [29 0] [33 4]] (REQUEST)
r 1.031856306 _46_ RTR  --- 0 AODV 48 [0 ffffffff 21 800] ------- [33:255 -1:255 30 0] [0x2 1 1 [29 0] [33 4]] (REQUEST)
r 1.031856307 _26_ RTR  --- 0 AODV 48 [0 ffffffff 21 800] ------- [33:255 -1:255 30 0] [0x2 1 1 [29 0] [33 4]] (REQUEST)
r 1.031856307 _20_ RTR  --- 0 AODV 48 [0 ffffffff 21 800] ------- [33:255 -1:255 30 0] [0x2 1 1 [29 0] [33 4]] (REQUEST)
r 1.031856312 _52_ RTR  --- 0 AODV 48 [0 ffffffff 21 800] ------- [33:255 -1:255 30 0] [0x2 1 1 [29 0] [33 4]] (REQUEST)
r 1.031856312 _54_ RTR  --- 0 AODV 48 [0 ffffffff 21 800] ------- [33:255 -1:255 30 0] [0x2 1 1 [29 0] [33 4]] (REQUEST)
r 1.031856315 _14_ RTR  --- 0 AODV 48 [0 ffffffff 21 800] ------- [33:255 -1:255 30 0] [0x2 1 1 [29 0] [33 4]] (REQUEST)
r 1.031856315 _12_ RTR  --- 0 AODV 48 [0 ffffffff 21 800] ------- [33:255 -1:255 30 0] [0x2 1 1 [29 0] [33 4]] (REQUEST)
r 1.031856380 _51_ RTR  --- 0 AODV 48 [0 ffffffff 21 800] ------- [33:255 -1:255 30 0] [0x2 1 1 [29 0] [33 4]] (REQUEST)
r 1.031856380 _55_ RTR  --- 0 AODV 48 [0 ffffffff 21 800] ------- [33:255 -1:255 30 0] [0x2 1 1 [29 0] [33 4]] (REQUEST)
r 1.031856383 _15_ RTR  --- 0 AODV 48 [0 ffffffff 21 800] ------- [33:255 -1:255 30 0] [0x2 1 1 [29 0] [33 4]] (REQUEST)
r 1.031856383 _11_ RTR  --- 0 AODV 48 [0 ffffffff 21 800] ------- [33:255 -1:255 30 0] [0x2 1 1 [29 0] [33 4]] (REQUEST)
r 1.031856401 _37_ RTR  --- 0 AODV 48 [0 ffffffff 21 800] ------- [33:255 -1:255 30 0] [0x2 1 1 [29 0] [33 4]] (REQUEST)
r 1.031856456 _47_ RTR  --- 0 AODV 48 [0 ffffffff 21 800] ------- [33:255 -1:255 30 0] [0x2 1 1 [29 0] [33 4]] (REQUEST)
r 1.031856457 _27_ RTR  --- 0 AODV 48 [0 ffffffff 21 800] ------- [33:255 -1:255 30 0] [0x2 1 1 [29 0] [33 4]] (REQUEST)
r 1.031856480 _50_ RTR  --- 0 AODV 48 [0 ffffffff 21 800] ------- [33:255 -1:255 30 0] [0x2 1 1 [29 0] [33 4]] (REQUEST)
r 1.031856480 _56_ RTR  --- 0 AODV 48 [0 ffffffff 21 800] ------- [33:255 -1:255 30 0] [0x2 1 1 [29 0] [33 4]] (REQUEST)
r 1.031856483 _16_ RTR  --- 0 AODV 48 [0 ffffffff 21 800] ------- [33:255 -1:255 30 0] [0x2 1 1 [29 0] [33 4]] (REQUEST)
r 1.031856483 _10_ RTR  --- 0 AODV 48 [0 ffffffff 21 800] ------- [33:255 -1:255 30 0] [0x2 1 1 [29 0] [33 4]] (REQUEST)
r 1.031856568 _3_ RTR  --- 0 AODV 48 [0 ffffffff 21 800] ------- [33:255 -1:255 30 0] [0x2 1 1 [29 0] [33 4]] (REQUEST)
r 1.031856568 _38_ RTR  --- 0 AODV 48 [0 ffffffff 21 800] ------- [33:255 -1:255 30 0] [0x2 1 1 [29 0] [33 4]] (REQUEST)
s 1.031891683 _37_ RTR  --- 0 AODV 48 [0 ffffffff 21 800] ------- [37:255 -1:255 29 0] [0x2 2 1 [29 0] [33 4]] (REQUEST)
s 1.032055911 _38_ RTR  --- 0 AODV 48 [0 ffffffff 21 800] ------- [38:255 -1:255 29 0] [0x2 2 1 [29 0] [33 4]] (REQUEST)
s 1.032271898 _41_ RTR  --- 0 AODV 48 [0 ffffffff 21 800] ------- [41:255 -1:255 29 0] [0x2 2 1 [29 0] [33 4]] (REQUEST)
s 1.032395330 _21_ RTR  --- 0 AODV 48 [0 ffffffff 21 800] ------- [21:255 -1:255 29 0] [0x2 2 1 [29 0] [33 4]] (REQUEST)
s 1.032409754 _53_ RTR  --- 0 AODV 48 [0 ffffffff 21 800] ------- [53:255 -1:255 29 0] [0x2 2 1 [29 0] [33 4]] (REQUEST)
s 1.032617179 _27_ RTR  --- 0 AODV 48 [0 ffffffff 21 800] ------- [27:255 -1:255 29 0] [0x2 2 1 [29 0] [33 4]] (REQUEST)
s 1.032630141 _45_ RTR  --- 0 AODV 48 [0 ffffffff 21 800] ------- [45:255 -1:255 29 0] [0x2 2 1 [29 0] [33 4]] (REQUEST)
s 1.033050328 _25_ RTR  --- 0 AODV 48 [0 ffffffff 21 800] ------- [25:255 -1:255 29 0] [0x2 2 1 [29 0] [33 4]] (REQUEST)
s 1.033154731 _14_ RTR  --- 0 AODV 48 [0 ffffffff 21 800] ------- [14:255 -1:255 29 0] [0x2 2 1 [29 0] [33 4]] (REQUEST)
s 1.033447875 _10_ RTR  --- 0 AODV 48 [0 ffffffff 21 800] ------- [10:255 -1:255 29 0] [0x2 2 1 [29 0] [33 4]] (REQUEST)
s 1.033474460 _34_ RTR  --- 0 AODV 48 [0 ffffffff 21 800] ------- [34:255 -1:255 29 0] [0x2 2 1 [29 0] [33 4]] (REQUEST)
s 1.033520563 _31_ RTR  --- 0 AODV 48 [0 ffffffff 21 800] ------- [31:255 -1:255 29 0] [0x2 2 1 [29 0] [33 4]] (REQUEST)
s 1.033785110 _35_ RTR  --- 0 AODV 48 [0 ffffffff 21 800] ------- [35:255 -1:255 29 0] [0x2 2 1 [29 0] [33 4]] (REQUEST)
s 1.033970379 _50_ RTR  --- 0 AODV 48 [0 ffffffff 21 800] ------- [50:255 -1:255 29 0] [0x2 2 1 [29 0] [33 4]] (REQUEST)
s 1.033999608 _36_ RTR  --- 0 AODV 48 [0 ffffffff 21 800] ------- [36:255 -1:255 29 0] [0x2 2 1 [29 0] [33 4]] (REQUEST)
s 1.034503495 _43_ RTR  --- 0 AODV 48 [0 ffffffff 21 800] ------- [43:255 -1:255 29 0] [0x2 2 1 [29 0] [33 4]] (REQUEST)
s 1.034554123 _3_ RTR  --- 0 AODV 48 [0 ffffffff 21 800] ------- [3:255 -1:255 29 0] [0x2 2 1 [29 0] [33 4]] (REQUEST)
s 1.034660345 _22_ RTR  --- 0 AODV 48 [0 ffffffff 21 800] ------- [22:255 -1:255 29 0] [0x2 2 1 [29 0] [33 4]] (REQUEST)
r 1.035371921 _52_ RTR  --- 0 AODV 48 [0 ffffffff 35 800] ------- [53:255 -1:255 29 0] [0x2 2 1 [29 0] [33 4]] (REQUEST)
r 1.035371921 _54_ RTR  --- 0 AODV 48 [0 ffffffff 35 800] ------- [53:255 -1:255 29 0] [0x2 2 1 [29 0] [33 4]] (REQUEST)
r 1.035372031 _43_ RTR  --- 0 AODV 48 [0 ffffffff 35 800] ------- [53:255 -1:255 29 0] [0x2 2 1 [29 0] [33 4]] (REQUEST)
r 1.035372077 _44_ RTR  --- 0 AODV 48 [0 ffffffff 35 800] ------- [53:255 -1:255 29 0] [0x2 2 1 [29 0] [33 4]] (REQUEST)
r 1.035372077 _42_ RTR  --- 0 AODV 48 [0 ffffffff 35 800] ------- [53:255 -1:255 29 0] [0x2 2 1 [29 0] [33 4]] (REQUEST)
r 1.035372087 _51_ RTR  --- 0 AODV 48 [0 ffffffff 35 800] ------- [53:255 -1:255 29 0] [0x2 2 1 [29 0] [33 4]] (REQUEST)
r 1.035372087 _55_ RTR  --- 0 AODV 48 [0 ffffffff 35 800] ------- [53:255 -1:255 29 0] [0x2 2 1 [29 0] [33 4]] (REQUEST)
r 1.035372187 _45_ RTR  --- 0 AODV 48 [0 ffffffff 35 800] ------- [53:255 -1:255 29 0] [0x2 2 1 [29 0] [33 4]] (REQUEST)
r 1.035372187 _41_ RTR  --- 0 AODV 48 [0 ffffffff 35 800] ------- [53:255 -1:255 29 0] [0x2 2 1 [29 0] [33 4]] (REQUEST)
r 1.035372254 _50_ RTR  --- 0 AODV 48 [0 ffffffff 35 800] ------- [53:255 -1:255 29 0] [0x2 2 1 [29 0] [33 4]] (REQUEST)
r 1.035372254 _56_ RTR  --- 0 AODV 48 [0 ffffffff 35 800] ------- [53:255 -1:255 29 0] [0x2 2 1 [29 0] [33 4]] (REQUEST)
r 1.035372307 _33_ RTR  --- 0 AODV 48 [0 ffffffff 35 800] ------- [53:255 -1:255 29 0] [0x2 2 1 [29 0] [33 4]] (REQUEST)
r 1.035372325 _46_ RTR  --- 0 AODV 48 [0 ffffffff 35 800] ------- [53:255 -1:255 29 0] [0x2 2 1 [29 0] [33 4]] (REQUEST)
r 1.035372325 _40_ RTR  --- 0 AODV 48 [0 ffffffff 35 800] ------- [53:255 -1:255 29 0] [0x2 2 1 [29 0] [33 4]] (REQUEST)
r 1.035372332 _34_ RTR  --- 0 AODV 48 [0 ffffffff 35 800] ------- [53:255 -1:255 29 0] [0x2 2 1 [29 0] [33 4]] (REQUEST)
r 1.035372332 _32_ RTR  --- 0 AODV 48 [0 ffffffff 35 800] ------- [53:255 -1:255 29 0] [0x2 2 1 [29 0] [33 4]] (REQUEST)
r 1.035372400 _35_ RTR  --- 0 AODV 48 [0 ffffffff 35 800] ------- [53:255 -1:255 29 0] [0x2 2 1 [29 0] [33 4]] (REQUEST)
r 1.035372400 _31_ RTR  --- 0 AODV 48 [0 ffffffff 35 800] ------- [53:255 -1:255 29 0] [0x2 2 1 [29 0] [33 4]] (REQUEST)
r 1.035372421 _57_ RTR  --- 0 AODV 48 [0 ffffffff 35 800] ------- [53:255 -1:255 29 0] [0x2 2 1 [29 0] [33 4]] (REQUEST)
r 1.035372476 _47_ RTR  --- 0 AODV 48 [0 ffffffff 35 800] ------- [53:255 -1:255 29 0] [0x2 2 1 [29 0] [33 4]] (REQUEST)
r 1.035372500 _36_ RTR  --- 0 AODV 48 [0 ffffffff 35 800] ------- [53:255 -1:255 29 0] [0x2 2 1 [29 0] [33 4]] (REQUEST)
r 1.035372500 _30_ RTR  --- 0 AODV 48 [0 ffffffff 35 800] ------- [53:255 -1:255 29 0] [0x2 2 1 [29 0] [33 4]] (REQUEST)
r 1.035372587 _23_ RTR  --- 0 AODV 48 [0 ffffffff 35 800] ------- [53:255 -1:255 29 0] [0x2 2 1 [29 0] [33 4]] (REQUEST)
r 1.035372587 _58_ RTR  --- 0 AODV 48 [0 ffffffff 35 800] ------- [53:255 -1:255 29 0] [0x2 2 1 [29 0] [33 4]] (REQUEST)
s 1.035447576 _30_ RTR  --- 0 AODV 48 [0 ffffffff 21 800] ------- [30:255 -1:255 29 0] [0x2 2 1 [29 0] [33 4]] (REQUEST)
s 1.035642387 _23_ RTR  --- 0 AODV 48 [0 ffffffff 21 800] ------- [23:255 -1:255 29 0] [0x2 2 1 [29 0] [33 4]] (REQUEST)
s 1.035784519 _52_ RTR  --- 0 AODV 48 [0 ffffffff 21 800] ------- [52:255 -1:255 29 0] [0x2 2 1 [29 0] [33 4]] (REQUEST)
s 1.036026674 _51_ RTR  --- 0 AODV 48 [0 ffffffff 21 800] ------- [51:255 -1:255 29 0] [0x2 2 1 [29 0] [33 4]] (REQUEST)
s 1.036159921 _26_ RTR  --- 0 AODV 48 [0 ffffffff 21 800] ------- [26:255 -1:255 29 0] [0x2 2 1 [29 0] [33 4]] (REQUEST)
s 1.036628950 _16_ RTR  --- 0 AODV 48 [0 ffffffff 21 800] ------- [16:255 -1:255 29 0] [0x2 2 1 [29 0] [33 4]] (REQUEST)
s 1.037291035 _54_ RTR  --- 0 AODV 48 [0 ffffffff 21 800] ------- [54:255 -1:255 29 0] [0x2 2 1 [29 0] [33 4]] (REQUEST)
r 1.037597607 _11_ RTR  --- 0 AODV 48 [0 ffffffff 15 800] ------- [21:255 -1:255 29 0] [0x2 2 1 [29 0] [33 4]] (REQUEST)
s 1.037658638 _12_ RTR  --- 0 AODV 48 [0 ffffffff 21 800] ------- [12:255 -1:255 29 0] [0x2 2 1 [29 0] [33 4]] (REQUEST)
r 1.037700546 _51_ RTR  --- 0 AODV 48 [0 ffffffff 32 800] ------- [50:255 -1:255 29 0] [0x2 2 1 [29 0] [33 4]] (REQUEST)
r 1.037707277 _34_ RTR  --- 0 AODV 48 [0 ffffffff 23 800] ------- [35:255 -1:255 29 0] [0x2 2 1 [29 0] [33 4]] (REQUEST)
r 1.037707277 _36_ RTR  --- 0 AODV 48 [0 ffffffff 23 800] ------- [35:255 -1:255 29 0] [0x2 2 1 [29 0] [33 4]] (REQUEST)
r 1.037707387 _45_ RTR  --- 0 AODV 48 [0 ffffffff 23 800] ------- [35:255 -1:255 29 0] [0x2 2 1 [29 0] [33 4]] (REQUEST)
r 1.037707390 _25_ RTR  --- 0 AODV 48 [0 ffffffff 23 800] ------- [35:255 -1:255 29 0] [0x2 2 1 [29 0] [33 4]] (REQUEST)
r 1.037707433 _46_ RTR  --- 0 AODV 48 [0 ffffffff 23 800] ------- [35:255 -1:255 29 0] [0x2 2 1 [29 0] [33 4]] (REQUEST)
r 1.037707436 _26_ RTR  --- 0 AODV 48 [0 ffffffff 23 800] ------- [35:255 -1:255 29 0] [0x2 2 1 [29 0] [33 4]] (REQUEST)
r 1.037707443 _37_ RTR  --- 0 AODV 48 [0 ffffffff 23 800] ------- [35:255 -1:255 29 0] [0x2 2 1 [29 0] [33 4]] (REQUEST)
r 1.037707543 _47_ RTR  --- 0 AODV 48 [0 ffffffff 23 800] ------- [35:255 -1:255 29 0] [0x2 2 1 [29 0] [33 4]] (REQUEST)
r 1.037707545 _27_ RTR  --- 0 AODV 48 [0 ffffffff 23 800] ------- [35:255 -1:255 29 0] [0x2 2 1 [29 0] [33 4]] (REQUEST)
r 1.037707610 _38_ RTR  --- 0 AODV 48 [0 ffffffff 23 800] ------- [35:255 -1:255 29 0] [0x2 2 1 [29 0] [33 4]] (REQUEST)
s 1.037973339 _42_ RTR  --- 0 AODV 48 [0 ffffffff 21 800] ------- [42:255 -1:255 29 0] [0x2 2 1 [29 0] [33 4]] (REQUEST)
s 1.038410474 _44_ RTR  --- 0 AODV 48 [0 ffffffff 21 800] ------- [44:255 -1:255 29 0] [0x2 2 1 [29 0] [33 4]] (REQUEST)
s 1.038428466 _32_ RTR  --- 0 AODV 48 [0 ffffffff 21 800] ------- [32:255 -1:255 29 0] [0x2 2 1 [29 0] [33 4]] (REQUEST)
s 1.038939826 _46_ RTR  --- 0 AODV 48 [0 ffffffff 21 800] ------- [46:255 -1:255 29 0] [0x2 2 1 [29 0] [33 4]] (REQUEST)
s 1.039110779 _57_ RTR  --- 0 AODV 48 [0 ffffffff 35 800] ------- [57:255 -1:255 28 0] [0x2 3 1 [29 0] [33 4]] (REQUEST)
s 1.039792762 _47_ RTR  --- 0 AODV 48 [0 ffffffff 21 800] ------- [47:255 -1:255 29 0] [0x2 2 1 [29 0] [33 4]] (REQUEST)
s 1.039915316 _15_ RTR  --- 0 AODV 48 [0 ffffffff 21 800] ------- [15:255 -1:255 29 0] [0x2 2 1 [29 0] [33 4]] (REQUEST)
s 1.040078415 _40_ RTR  --- 0 AODV 48 [0 ffffffff 21 800] ------- [40:255 -1:255 29 0] [0x2 2 1 [29 0] [33 4]] (REQUEST)
s 1.040125161 _55_ RTR  --- 0 AODV 48 [0 ffffffff 21 800] ------- [55:255 -1:255 29 0] [0x2 2 1 [29 0] [33 4]] (REQUEST)
s 1.040156761 _20_ RTR  --- 0 AODV 48 [0 ffffffff 21 800] ------- [20:255 -1:255 29 0] [0x2 2 1 [29 0] [33 4]] (REQUEST)
s 1.040239437 _56_ RTR  --- 0 AODV 48 [0 ffffffff 21 800] ------- [56:255 -1:255 29 0] [0x2 2 1 [29 0] [33 4]] (REQUEST)
s 1.040401615 _24_ RTR  --- 0 AODV 48 [0 ffffffff 21 800] ------- [24:255 -1:255 29 0] [0x2 2 1 [29 0] [33 4]] (REQUEST)
s 1.040430110 _11_ RTR  --- 0 AODV 48 [0 ffffffff 21 800] ------- [11:255 -1:255 29 0] [0x2 2 1 [29 0] [33 4]] (REQUEST)
s 1.041394775 _13_ RTR  --- 0 AODV 48 [0 ffffffff 21 800] ------- [13:255 -1:255 29 0] [0x2 2 1 [29 0] [33 4]] (REQUEST)
r 1.042644740 _24_ RTR  --- 0 AODV 48 [0 ffffffff 22 800] ------- [34:255 -1:255 29 0] [0x2 2 1 [29 0] [33 4]] (REQUEST)
r 1.042644786 _25_ RTR  --- 0 AODV 48 [0 ffffffff 22 800] ------- [34:255 -1:255 29 0] [0x2 2 1 [29 0] [33 4]] (REQUEST)
r 1.042644786 _23_ RTR  --- 0 AODV 48 [0 ffffffff 22 800] ------- [34:255 -1:255 29 0] [0x2 2 1 [29 0] [33 4]] (REQUEST)
r 1.042652751 _54_ RTR  --- 0 AODV 48 [0 ffffffff 2c 800] ------- [44:255 -1:255 29 0] [0x2 2 1 [29 0] [33 4]] (REQUEST)
r 1.042652797 _53_ RTR  --- 0 AODV 48 [0 ffffffff 2c 800] ------- [44:255 -1:255 29 0] [0x2 2 1 [29 0] [33 4]] (REQUEST)
r 1.042652797 _55_ RTR  --- 0 AODV 48 [0 ffffffff 2c 800] ------- [44:255 -1:255 29 0] [0x2 2 1 [29 0] [33 4]] (REQUEST)
s 1.043142005 _58_ RTR  --- 0 AODV 48 [0 ffffffff 35 800] ------- [58:255 -1:255 28 0] [0x2 3 1 [29 0] [33 4]] (REQUEST)
s 1.043200314 _34_ AGT  --- 1 tcp 40 [0 0 0 0] ------- [34:1 49:0 32 0] [0 0] 0 0
r 1.043200314 _34_ RTR  --- 1 tcp 40 [0 0 0 0] ------- [34:1 49:0 32 0] [0 0] 0 0
s 1.043200314 _34_ RTR  --- 0 AODV 48 [0 0 0 0] ------- [34:255 -1:255 30 0] [0x2 1 1 [49 0] [34 4]] (REQUEST)
r 1.044954685 _51_ RTR  --- 0 AODV 48 [0 ffffffff 34 800] ------- [52:255 -1:255 29 0] [0x2 2 1 [29 0] [33 4]] (REQUEST)
r 1.044954685 _53_ RTR  --- 0 AODV 48 [0 ffffffff 34 800] ------- [52:255 -1:255 29 0] [0x2 2 1 [29 0] [33 4]] (REQUEST)
r 1.044954795 _42_ RTR  --- 0 AODV 48 [0 ffffffff 34 800] ------- [52:255 -1:255 29 0] [0x2 2 1 [29 0] [33 4]] (REQUEST)
r 1.044954842 _43_ RTR  --- 0 AODV 48 [0 ffffffff 34 800] ------- [52:255 -1:255 29 0] [0x2 2 1 [29 0] [33 4]] (REQUEST)
r 1.044954842 _41_ RTR  --- 0 AODV 48 [0 ffffffff 34 800] ------- [52:255 -1:255 29 0] [0x2 2 1 [29 0] [33 4]] (REQUEST)
r 1.044954852 _50_ RTR  --- 0 AODV 48 [0 ffffffff 34 800] ------- [52:255 -1:255 29 0] [0x2 2 1 [29 0] [33 4]] (REQUEST)
r 1.044954852 _54_ RTR  --- 0 AODV 48 [0 ffffffff 34 800] ------- [52:255 -1:255 29 0] [0x2 2 1 [29 0] [33 4]] (REQUEST)
r 1.044954952 _44_ RTR  --- 0 AODV 48 [0 ffffffff 34 800] ------- [52:255 -1:255 29 0] [0x2 2 1 [29 0] [33 4]] (REQUEST)
r 1.044954952 _40_ RTR  --- 0 AODV 48 [0 ffffffff 34 800] ------- [52:255 -1:255 29 0] [0x2 2 1 [29 0] [33 4]] (REQUEST)
r 1.044955019 _55_ RTR  --- 0 AODV 48 [0 ffffffff 34 800] ------- [52:255 -1:255 29 0] [0x2 2 1 [29 0] [33 4]] (REQUEST)
r 1.045117483 _14_ RTR  --- 0 AODV 48 [0 ffffffff f 800] ------- [15:255 -1:255 29 0] [0x2 2 1 [29 0] [33 4]] (REQUEST)
r 1.045117483 _16_ RTR  --- 0 AODV 48 [0 ffffffff f 800] ------- [15:255 -1:255 29 0] [0x2 2 1 [29 0] [33 4]] (REQUEST)
r 1.045117593 _5_ RTR  --- 0 AODV 48 [0 ffffffff f 800] ------- [15:255 -1:255 29 0] [0x2 2 1 [29 0] [33 4]] (REQUEST)
r 1.045117593 _25_ RTR  --- 0 AODV 48 [0 ffffffff f 800] ------- [15:255 -1:255 29 0] [0x2 2 1 [29 0] [33 4]] (REQUEST)
r 1.045117639 _6_ RTR  --- 0 AODV 48 [0 ffffffff f 800] ------- [15:255 -1:255 29 0] [0x2 2 1 [29 0] [33 4]] (REQUEST)
r 1.045117639 _4_ RTR  --- 0 AODV 48 [0 ffffffff f 800] ------- [15:255 -1:255 29 0] [0x2 2 1 [29 0] [33 4]] (REQUEST)
r 1.045117639 _24_ RTR  --- 0 AODV 48 [0 ffffffff f 800] ------- [15:255 -1:255 29 0] [0x2 2 1 [29 0] [33 4]] (REQUEST)
r 1.045117639 _26_ RTR  --- 0 AODV 48 [0 ffffffff f 800] ------- [15:255 -1:255 29 0] [0x2 2 1 [29 0] [33 4]] (REQUEST)
r 1.045117649 _13_ RTR  --- 0 AODV 48 [0 ffffffff f 800] ------- [15:255 -1:255 29 0] [0x2 2 1 [29 0] [33 4]] (REQUEST)
r 1.045117649 _17_ RTR  --- 0 AODV 48 [0 ffffffff f 800] ------- [15:255 -1:255 29 0] [0x2 2 1 [29 0] [33 4]] (REQUEST)
r 1.045117749 _7_ RTR  --- 0 AODV 48 [0 ffffffff f 800] ------- [15:255 -1:255 29 0] [0x2 2 1 [29 0] [33 4]] (REQUEST)
r 1.045117749 _3_ RTR  --- 0 AODV 48 [0 ffffffff f 800] ------- [15:255 -1:255 29 0] [0x2 2 1 [29 0] [33 4]] (REQUEST)
r 1.045117749 _23_ RTR  --- 0 AODV 48 [0 ffffffff f 800] ------- [15:255 -1:255 29 0] [0x2 2 1 [29 0] [33 4]] (REQUEST)
r 1.045117749 _27_ RTR  --- 0 AODV 48 [0 ffffffff f 800] ------- [15:255 -1:255 29 0] [0x2 2 1 [29 0] [33 4]] (REQUEST)
r 1.045117816 _12_ RTR  --- 0 AODV 48 [0 ffffffff f 800] ------- [15:255 -1:255 29 0] [0x2 2 1 [29 0] [33 4]] (REQUEST)
r 1.045117816 _18_ RTR  --- 0 AODV 48 [0 ffffffff f 800] ------- [15:255 -1:255 29 0] [0x2 2 1 [29 0] [33 4]] (REQUEST)
r 1.045117887 _8_ RTR  --- 0 AODV 48 [0 ffffffff f 800] ------- [15:255 -1:255 29 0] [0x2 2 1 [29 0] [33 4]] (REQUEST)
r 1.045117887 _2_ RTR  --- 0 AODV 48 [0 ffffffff f 800] ------- [15:255 -1:255 29 0] [0x2 2 1 [29 0] [33 4]] (REQUEST)
r 1.045117887 _28_ RTR  --- 0 AODV 48 [0 ffffffff f 800] ------- [15:255 -1:255 29 0] [0x2 2 1 [29 0] [33 4]] (REQUEST)
r 1.045117983 _19_ RTR  --- 0 AODV 48 [0 ffffffff f 800] ------- [15:255 -1:255 29 0] [0x2 2 1 [29 0] [33 4]] (REQUEST)
r 1.045118038 _9_ RTR  --- 0 AODV 48 [0 ffffffff f 800] ------- [15:255 -1:255 29 0] [0x2 2 1 [29 0] [33 4]] (REQUEST)
r 1.045118038 _1_ RTR  --- 0 AODV 48 [0 ffffffff f 800] ------- [15:255 -1:255 29 0] [0x2 2 1 [29 0] [33 4]] (REQUEST)
r 1.045118038 _29_ RTR  --- 0 AODV 48 [0 ffffffff f 800] ------- [15:255 -1:255 29 0] [0x2 2 1 [29 0] [33 4]] (REQUEST)
s 1.045118038 _29_ RTR  --- 0 AODV 44 [0 0 0 0] ------- [29:255 33:255 30 15] [0x4 1 [29 4] 10.000000] (REPLY)
s 1.046363364 _9_ RTR  --- 0 AODV 48 [0 ffffffff f 800] ------- [9:255 -1:255 28 0] [0x2 3 1 [29 0] [33 4]] (REQUEST)
s 1.046414873 _7_ RTR  --- 0 AODV 48 [0 ffffffff f 800] ------- [7:255 -1:255 28 0] [0x2 3 1 [29 0] [33 4]] (REQUEST)
s 1.046639766 _4_ RTR  --- 0 AODV 48 [0 ffffffff f 800] ------- [4:255 -1:255 28 0] [0x2 3 1 [29 0] [33 4]] (REQUEST)
s 1.046664761 _5_ RTR  --- 0 AODV 48 [0 ffffffff f 800] ------- [5:255 -1:255 28 0] [0x2 3 1 [29 0] [33 4]] (REQUEST)
r 1.047375328 _54_ RTR  --- 0 AODV 48 [0 ffffffff 37 800] ------- [55:255 -1:255 29 0] [0x2 2 1 [29 0] [33 4]] (REQUEST)
r 1.047375328 _56_ RTR  --- 0 AODV 48 [0 ffffffff 37 800] ------- [55:255 -1:255 29 0] [0x2 2 1 [29 0] [33 4]] (REQUEST)
r 1.047375438 _45_ RTR  --- 0 AODV 48 [0 ffffffff 37 800] ------- [55:255 -1:255 29 0] [0x2 2 1 [29 0] [33 4]] (REQUEST)
r 1.047375484 _46_ RTR  --- 0 AODV 48 [0 ffffffff 37 800] ------- [55:255 -1:255 29 0] [0x2 2 1 [29 0] [33 4]] (REQUEST)
r 1.047375484 _44_ RTR  --- 0 AODV 48 [0 ffffffff 37 800] ------- [55:255 -1:255 29 0] [0x2 2 1 [29 0] [33 4]] (REQUEST)
r 1.047375495 _53_ RTR  --- 0 AODV 48 [0 ffffffff 37 800] ------- [55:255 -1:255 29 0] [0x2 2 1 [29 0] [33 4]] (REQUEST)
r 1.047375495 _57_ RTR  --- 0 AODV 48 [0 ffffffff 37 800] ------- [55:255 -1:255 29 0] [0x2 2 1 [29 0] [33 4]] (REQUEST)
r 1.047375595 _47_ RTR  --- 0 AODV 48 [0 ffffffff 37 800] ------- [55:255 -1:255 29 0] [0x2 2 1 [29 0] [33 4]] (REQUEST)
r 1.047375661 _58_ RTR  --- 0 AODV 48 [0 ffffffff 37 800] ------- [55:255 -1:255 29 0] [0x2 2 1 [29 0] [33 4]] (REQUEST)
r 1.047375828 _59_ RTR  --- 0 AODV 48 [0 ffffffff 37 800] ------- [55:255 -1:255 29 0] [0x2 2 1 [29 0] [33 4]] (REQUEST)
r 1.047406928 _21_ RTR  --- 0 AODV 48 [0 ffffffff 14 800] ------- [20:255 -1:255 29 0] [0x2 2 1 [29 0] [33 4]] (REQUEST)
r 1.047407038 _10_ RTR  --- 0 AODV 48 [0 ffffffff 14 800] ------- [20:255 -1:255 29 0] [0x2 2 1 [29 0] [33 4]] (REQUEST)
r 1.047407041 _30_ RTR  --- 0 AODV 48 [0 ffffffff 14 800] ------- [20:255 -1:255 29 0] [0x2 2 1 [29 0] [33 4]] (REQUEST)
r 1.047407087 _31_ RTR  --- 0 AODV 48 [0 ffffffff 14 800] ------- [20:255 -1:255 29 0] [0x2 2 1 [29 0] [33 4]] (REQUEST)
r 1.047508897 _13_ RTR  --- 0 AODV 48 [0 ffffffff e 800] ------- [14:255 -1:255 29 0] [0x2 2 1 [29 0] [33 4]] (REQUEST)
r 1.047508897 _15_ RTR  --- 0 AODV 48 [0 ffffffff e 800] ------- [14:255 -1:255 29 0] [0x2 2 1 [29 0] [33 4]] (REQUEST)
r 1.047509007 _4_ RTR  --- 0 AODV 48 [0 ffffffff e 800] ------- [14:255 -1:255 29 0] [0x2 2 1 [29 0] [33 4]] (REQUEST)
r 1.047509007 _24_ RTR  --- 0 AODV 48 [0 ffffffff e 800] ------- [14:255 -1:255 29 0] [0x2 2 1 [29 0] [33 4]] (REQUEST)
r 1.047509054 _5_ RTR  --- 0 AODV 48 [0 ffffffff e 800] ------- [14:255 -1:255 29 0] [0x2 2 1 [29 0] [33 4]] (REQUEST)
r 1.047509054 _3_ RTR  --- 0 AODV 48 [0 ffffffff e 800] ------- [14:255 -1:255 29 0] [0x2 2 1 [29 0] [33 4]] (REQUEST)
r 1.047509054 _25_ RTR  --- 0 AODV 48 [0 ffffffff e 800] ------- [14:255 -1:255 29 0] [0x2 2 1 [29 0] [33 4]] (REQUEST)
r 1.047509064 _16_ RTR  --- 0 AODV 48 [0 ffffffff e 800] ------- [14:255 -1:255 29 0] [0x2 2 1 [29 0] [33 4]] (REQUEST)
r 1.047509164 _6_ RTR  --- 0 AODV 48 [0 ffffffff e 800] ------- [14:255 -1:255 29 0] [0x2 2 1 [29 0] [33 4]] (REQUEST)
r 1.047509231 _17_ RTR  --- 0 AODV 48 [0 ffffffff e 800] ------- [14:255 -1:255 29 0] [0x2 2 1 [29 0] [33 4]] (REQUEST)
r 1.047509302 _7_ RTR  --- 0 AODV 48 [0 ffffffff e 800] ------- [14:255 -1:255 29 0] [0x2 2 1 [29 0] [33 4]] (REQUEST)
s 1.047849393 _17_ RTR  --- 0 AODV 48 [0 ffffffff f 800] ------- [17:255 -1:255 28 0] [0x2 3 1 [29 0] [33 4]] (REQUEST)
s 1.047889461 _6_ RTR  --- 0 AODV 48 [0 ffffffff f 800] ------- [6:255 -1:255 28 0] [0x2 3 1 [29 0] [33 4]] (REQUEST)
s 1.049772170 _1_ RTR  --- 0 AODV 48 [0 ffffffff f 800] ------- [1:255 -1:255 28 0] [0x2 3 1 [29 0] [33 4]] (REQUEST)
r 1.049964494 _24_ RTR  --- 0 AODV 48 [0 ffffffff 19 800] ------- [25:255 -1:255 29 0] [0x2 2 1 [29 0] [33 4]] (REQUEST)
r 1.049964494 _26_ RTR  --- 0 AODV 48 [0 ffffffff 19 800] ------- [25:255 -1:255 29 0] [0x2 2 1 [29 0] [33 4]] (REQUEST)
r 1.049964604 _15_ RTR  --- 0 AODV 48 [0 ffffffff 19 800] ------- [25:255 -1:255 29 0] [0x2 2 1 [29 0] [33 4]] (REQUEST)
r 1.049964608 _35_ RTR  --- 0 AODV 48 [0 ffffffff 19 800] ------- [25:255 -1:255 29 0] [0x2 2 1 [29 0] [33 4]] (REQUEST)
r 1.049964651 _16_ RTR  --- 0 AODV 48 [0 ffffffff 19 800] ------- [25:255 -1:255 29 0] [0x2 2 1 [29 0] [33 4]] (REQUEST)
r 1.049964654 _34_ RTR  --- 0 AODV 48 [0 ffffffff 19 800] ------- [25:255 -1:255 29 0] [0x2 2 1 [29 0] [33 4]] (REQUEST)
r 1.049964654 _36_ RTR  --- 0 AODV 48 [0 ffffffff 19 800] ------- [25:255 -1:255 29 0] [0x2 2 1 [29 0] [33 4]] (REQUEST)
r 1.049964661 _27_ RTR  --- 0 AODV 48 [0 ffffffff 19 800] ------- [25:255 -1:255 29 0] [0x2 2 1 [29 0] [33 4]] (REQUEST)
r 1.049964761 _17_ RTR  --- 0 AODV 48 [0 ffffffff 19 800] ------- [25:255 -1:255 29 0] [0x2 2 1 [29 0] [33 4]] (REQUEST)
r 1.049964763 _37_ RTR  --- 0 AODV 48 [0 ffffffff 19 800] ------- [25:255 -1:255 29 0] [0x2 2 1 [29 0] [33 4]] (REQUEST)
r 1.049964828 _28_ RTR  --- 0 AODV 48 [0 ffffffff 19 800] ------- [25:255 -1:255 29 0] [0x2 2 1 [29 0] [33 4]] (REQUEST)
r 1.049964884 _45_ RTR  --- 0 AODV 48 [0 ffffffff 19 800] ------- [25:255 -1:255 29 0] [0x2 2 1 [29 0] [33 4]] (REQUEST)
r 1.049964899 _18_ RTR  --- 0 AODV 48 [0 ffffffff 19 800] ------- [25:255 -1:255 29 0] [0x2 2 1 [29 0] [33 4]] (REQUEST)
r 1.049964901 _38_ RTR  --- 0 AODV 48 [0 ffffffff 19 800] ------- [25:255 -1:255 29 0] [0x2 2 1 [29 0] [33 4]] (REQUEST)
r 1.049964909 _46_ RTR  --- 0 AODV 48 [0 ffffffff 19 800] ------- [25:255 -1:255 29 0] [0x2 2 1 [29 0] [33 4]] (REQUEST)
r 1.049964977 _47_ RTR  --- 0 AODV 48 [0 ffffffff 19 800] ------- [25:255 -1:255 29 0] [0x2 2 1 [29 0] [33 4]] (REQUEST)
r 1.049964994 _29_ RTR  --- 0 AODV 48 [0 ffffffff 19 800] ------- [25:255 -1:255 29 0] [0x2 2 1 [29 0] [33 4]] (REQUEST)
r 1.049965050 _19_ RTR  --- 0 AODV 48 [0 ffffffff 19 800] ------- [25:255 -1:255 29 0] [0x2 2 1 [29 0] [33 4]] (REQUEST)
r 1.049965051 _39_ RTR  --- 0 AODV 48 [0 ffffffff 19 800] ------- [25:255 -1:255 29 0] [0x2 2 1 [29 0] [33 4]] (REQUEST)
r 1.049965076 _48_ RTR  --- 0 AODV 48 [0 ffffffff 19 800] ------- [25:255 -1:255 29 0] [0x2 2 1 [29 0] [33 4]] (REQUEST)
r 1.050048277 _10_ RTR  --- 0 AODV 48 [0 ffffffff b 800] ------- [11:255 -1:255 29 0] [0x2 2 1 [29 0] [33 4]] (REQUEST)
r 1.050048277 _12_ RTR  --- 0 AODV 48 [0 ffffffff b 800] ------- [11:255 -1:255 29 0] [0x2 2 1 [29 0] [33 4]] (REQUEST)
r 1.050048387 _1_ RTR  --- 0 AODV 48 [0 ffffffff b 800] ------- [11:255 -1:255 29 0] [0x2 2 1 [29 0] [33 4]] (REQUEST)
r 1.050048387 _21_ RTR  --- 0 AODV 48 [0 ffffffff b 800] ------- [11:255 -1:255 29 0] [0x2 2 1 [29 0] [33 4]] (REQUEST)
r 1.050048433 _2_ RTR  --- 0 AODV 48 [0 ffffffff b 800] ------- [11:255 -1:255 29 0] [0x2 2 1 [29 0] [33 4]] (REQUEST)
r 1.050048433 _0_ RTR  --- 0 AODV 48 [0 ffffffff b 800] ------- [11:255 -1:255 29 0] [0x2 2 1 [29 0] [33 4]] (REQUEST)
r 1.050048433 _20_ RTR  --- 0 AODV 48 [0 ffffffff b 800] ------- [11:255 -1:255 29 0] [0x2 2 1 [29 0] [33 4]] (REQUEST)
s 1.050507157 _59_ RTR  --- 0 AODV 48 [0 ffffffff 37 800] ------- [59:255 -1:255 28 0] [0x2 3 1 [29 0] [33 4]] (REQUEST)
s 1.050578444 _19_ RTR  --- 0 AODV 48 [0 ffffffff f 800] ------- [19:255 -1:255 28 0] [0x2 3 1 [29 0] [33 4]] (REQUEST)
s 1.052032204 _28_ RTR  --- 0 AODV 48 [0 ffffffff f 800] ------- [28:255 -1:255 28 0] [0x2 3 1 [29 0] [33 4]] (REQUEST)
r 1.052734336 _0_ RTR  --- 0 AODV 48 [0 ffffffff 1 800] ------- [1:255 -1:255 28 0] [0x2 3 1 [29 0] [33 4]] (REQUEST)
r 1.052771628 _5_ RTR  --- 0 AODV 48 [0 ffffffff 6 800] ------- [6:255 -1:255 28 0] [0x2 3 1 [29 0] [33 4]] (REQUEST)
r 1.052771628 _7_ RTR  --- 0 AODV 48 [0 ffffffff 6 800] ------- [6:255 -1:255 28 0] [0x2 3 1 [29 0] [33 4]] (REQUEST)
r 1.052771738 _16_ RTR  --- 0 AODV 48 [0 ffffffff 6 800] ------- [6:255 -1:255 28 0] [0x2 3 1 [29 0] [33 4]] (REQUEST)
r 1.052771784 _17_ RTR  --- 0 AODV 48 [0 ffffffff 6 800] ------- [6:255 -1:255 28 0] [0x2 3 1 [29 0] [33 4]] (REQUEST)
r 1.052771795 _8_ RTR  --- 0 AODV 48 [0 ffffffff 6 800] ------- [6:255 -1:255 28 0] [0x2 3 1 [29 0] [33 4]] (REQUEST)
r 1.052771961 _9_ RTR  --- 0 AODV 48 [0 ffffffff 6 800] ------- [6:255 -1:255 28 0] [0x2 3 1 [29 0] [33 4]] (REQUEST)
r 1.052946481 _33_ RTR  --- 0 AODV 48 [0 ffffffff 22 800] ------- [34:255 -1:255 30 0] [0x2 1 1 [49 0] [34 4]] (REQUEST)
r 1.052946481 _35_ RTR  --- 0 AODV 48 [0 ffffffff 22 800] ------- [34:255 -1:255 30 0] [0x2 1 1 [49 0] [34 4]] (REQUEST)
r 1.052989202 _53_ RTR  --- 0 AODV 48 [0 ffffffff 36 800] ------- [54:255 -1:255 29 0] [0x2 2 1 [29 0] [33 4]] (REQUEST)
r 1.052989202 _55_ RTR  --- 0 AODV 48 [0 ffffffff 36 800] ------- [54:255 -1:255 29 0] [0x2 2 1 [29 0] [33 4]] (REQUEST)
r 1.052989369 _52_ RTR  --- 0 AODV 48 [0 ffffffff 36 800] ------- [54:255 -1:255 29 0] [0x2 2 1 [29 0] [33 4]] (REQUEST)
r 1.052989369 _56_ RTR  --- 0 AODV 48 [0 ffffffff 36 800] ------- [54:255 -1:255 29 0] [0x2 2 1 [29 0] [33 4]] (REQUEST)
s 1.053339057 _2_ RTR  --- 0 AODV 48 [0 ffffffff f 800] ------- [2:255 -1:255 28 0] [0x2 3 1 [29 0] [33 4]] (REQUEST)
s 1.053493005 _8_ RTR  --- 0 AODV 48 [0 ffffffff f 800] ------- [8:255 -1:255 28 0] [0x2 3 1 [29 0] [33 4]] (REQUEST)
s 1.054562809 _35_ RTR  --- 0 AODV 48 [0 ffffffff 22 800] ------- [35:255 -1:255 29 0] [0x2 2 1 [49 0] [34 4]] (REQUEST)
s 1.054693629 _18_ RTR  --- 0 AODV 48 [0 ffffffff f 800] ------- [18:255 -1:255 28 0] [0x2 3 1 [29 0] [33 4]] (REQUEST)
r 1.055244841 _50_ RTR  --- 0 AODV 48 [0 ffffffff 33 800] ------- [51:255 -1:255 29 0] [0x2 2 1 [29 0] [33 4]] (REQUEST)
r 1.055244841 _52_ RTR  --- 0 AODV 48 [0 ffffffff 33 800] ------- [51:255 -1:255 29 0] [0x2 2 1 [29 0] [33 4]] (REQUEST)
r 1.055244951 _41_ RTR  --- 0 AODV 48 [0 ffffffff 33 800] ------- [51:255 -1:255 29 0] [0x2 2 1 [29 0] [33 4]] (REQUEST)
r 1.055244997 _42_ RTR  --- 0 AODV 48 [0 ffffffff 33 800] ------- [51:255 -1:255 29 0] [0x2 2 1 [29 0] [33 4]] (REQUEST)
r 1.055244997 _40_ RTR  --- 0 AODV 48 [0 ffffffff 33 800] ------- [51:255 -1:255 29 0] [0x2 2 1 [29 0] [33 4]] (REQUEST)
r 1.055245008 _53_ RTR  --- 0 AODV 48 [0 ffffffff 33 800] ------- [51:255 -1:255 29 0] [0x2 2 1 [29 0] [33 4]] (REQUEST)
r 1.055267782 _23_ RTR  --- 0 AODV 48 [0 ffffffff 18 800] ------- [24:255 -1:255 29 0] [0x2 2 1 [29 0] [33 4]] (REQUEST)
r 1.055267782 _25_ RTR  --- 0 AODV 48 [0 ffffffff 18 800] ------- [24:255 -1:255 29 0] [0x2 2 1 [29 0] [33 4]] (REQUEST)
r 1.055267892 _14_ RTR  --- 0 AODV 48 [0 ffffffff 18 800] ------- [24:255 -1:255 29 0] [0x2 2 1 [29 0] [33 4]] (REQUEST)