s 1.106011134 _26_ AGT  --- 0 tcp 40 [0 0 0 0] ------- [26:1 11:0 32 0] [0 0] 0 0
r 1.106011134 _26_ RTR  --- 0 tcp 40 [0 0 0 0] ------- [26:1 11:0 32 0] [0 0] 0 0
s 1.106011134 _26_ RTR  --- 0 AODV 48 [0 0 0 0] ------- [26:255 -1:255 30 0] [0x2 1 1 [11 0] [26 4]] (REQUEST)
r 1.109933340 _27_ RTR  --- 0 AODV 48 [0 ffffffff 1a 800] ------- [26:255 -1:255 30 0] [0x2 1 1 [11 0] [26 4]] (REQUEST)
r 1.109933344 _25_ RTR  --- 0 AODV 48 [0 ffffffff 1a 800] ------- [26:255 -1:255 30 0] [0x2 1 1 [11 0] [26 4]] (REQUEST)
r 1.109933467 _18_ RTR  --- 0 AODV 48 [0 ffffffff 1a 800] ------- [26:255 -1:255 30 0] [0x2 1 1 [11 0] [26 4]] (REQUEST)
r 1.109933467 _34_ RTR  --- 0 AODV 48 [0 ffffffff 1a 800] ------- [26:255 -1:255 30 0] [0x2 1 1 [11 0] [26 4]] (REQUEST)
r 1.109933526 _19_ RTR  --- 0 AODV 48 [0 ffffffff 1a 800] ------- [26:255 -1:255 30 0] [0x2 1 1 [11 0] [26 4]] (REQUEST)
r 1.109933526 _35_ RTR  --- 0 AODV 48 [0 ffffffff 1a 800] ------- [26:255 -1:255 30 0] [0x2 1 1 [11 0] [26 4]] (REQUEST)
r 1.109933528 _17_ RTR  --- 0 AODV 48 [0 ffffffff 1a 800] ------- [26:255 -1:255 30 0] [0x2 1 1 [11 0] [26 4]] (REQUEST)
r 1.109933528 _33_ RTR  --- 0 AODV 48 [0 ffffffff 1a 800] ------- [26:255 -1:255 30 0] [0x2 1 1 [11 0] [26 4]] (REQUEST)
r 1.109933550 _24_ RTR  --- 0 AODV 48 [0 ffffffff 1a 800] ------- [26:255 -1:255 30 0] [0x2 1 1 [11 0] [26 4]] (REQUEST)
r 1.109933550 _28_ RTR  --- 0 AODV 48 [0 ffffffff 1a 800] ------- [26:255 -1:255 30 0] [0x2 1 1 [11 0] [26 4]] (REQUEST)
r 1.109933667 _20_ RTR  --- 0 AODV 48 [0 ffffffff 1a 800] ------- [26:255 -1:255 30 0] [0x2 1 1 [11 0] [26 4]] (REQUEST)
r 1.109933667 _16_ RTR  --- 0 AODV 48 [0 ffffffff 1a 800] ------- [26:255 -1:255 30 0] [0x2 1 1 [11 0] [26 4]] (REQUEST)
r 1.109933667 _32_ RTR  --- 0 AODV 48 [0 ffffffff 1a 800] ------- [26:255 -1:255 30 0] [0x2 1 1 [11 0] [26 4]] (REQUEST)
r 1.109933667 _36_ RTR  --- 0 AODV 48 [0 ffffffff 1a 800] ------- [26:255 -1:255 30 0] [0x2 1 1 [11 0] [26 4]] (REQUEST)
r 1.109933757 _29_ RTR  --- 0 AODV 48 [0 ffffffff 1a 800] ------- [26:255 -1:255 30 0] [0x2 1 1 [11 0] [26 4]] (REQUEST)
r 1.109933800 _10_ RTR  --- 0 AODV 48 [0 ffffffff 1a 800] ------- [26:255 -1:255 30 0] [0x2 1 1 [11 0] [26 4]] (REQUEST)
r 1.109933832 _11_ RTR  --- 0 AODV 48 [0 ffffffff 1a 800] ------- [26:255 -1:255 30 0] [0x2 1 1 [11 0] [26 4]] (REQUEST)
s 1.109933832 _11_ RTR  --- 0 AODV 44 [0 0 0 0] ------- [11:255 26:255 30 26] [0x4 1 [11 4] 10.000000] (REPLY)
r 1.109933833 _9_ RTR  --- 0 AODV 48 [0 ffffffff 1a 800] ------- [26:255 -1:255 30 0] [0x2 1 1 [11 0] [26 4]] (REQUEST)
r 1.109933840 _21_ RTR  --- 0 AODV 48 [0 ffffffff 1a 800] ------- [26:255 -1:255 30 0] [0x2 1 1 [11 0] [26 4]] (REQUEST)
r 1.109933840 _37_ RTR  --- 0 AODV 48 [0 ffffffff 1a 800] ------- [26:255 -1:255 30 0] [0x2 1 1 [11 0] [26 4]] (REQUEST)
r 1.109933920 _12_ RTR  --- 0 AODV 48 [0 ffffffff 1a 800] ------- [26:255 -1:255 30 0] [0x2 1 1 [11 0] [26 4]] (REQUEST)
r 1.109933920 _8_ RTR  --- 0 AODV 48 [0 ffffffff 1a 800] ------- [26:255 -1:255 30 0] [0x2 1 1 [11 0] [26 4]] (REQUEST)
r 1.109933967 _30_ RTR  --- 0 AODV 48 [0 ffffffff 1a 800] ------- [26:255 -1:255 30 0] [0x2 1 1 [11 0] [26 4]] (REQUEST)
s 1.110328586 _28_ RTR  --- 0 AODV 48 [0 ffffffff 1a 800] ------- [28:255 -1:255 29 0] [0x2 2 1 [11 0] [26 4]] (REQUEST)
s 1.110520736 _29_ RTR  --- 0 AODV 48 [0 ffffffff 1a 800] ------- [29:255 -1:255 29 0] [0x2 2 1 [11 0] [26 4]] (REQUEST)
s 1.110578418 _17_ RTR  --- 0 AODV 48 [0 ffffffff 1a 800] ------- [17:255 -1:255 29 0] [0x2 2 1 [11 0] [26 4]] (REQUEST)
s 1.111518663 _19_ RTR  --- 0 AODV 48 [0 ffffffff 1a 800] ------- [19:255 -1:255 29 0] [0x2 2 1 [11 0] [26 4]] (REQUEST)
s 1.111700376 _33_ RTR  --- 0 AODV 48 [0 ffffffff 1a 800] ------- [33:255 -1:255 29 0] [0x2 2 1 [11 0] [26 4]] (REQUEST)
s 1.112201974 _32_ RTR  --- 0 AODV 48 [0 ffffffff 1a 800] ------- [32:255 -1:255 29 0] [0x2 2 1 [11 0] [26 4]] (REQUEST)
s 1.112223688 _12_ RTR  --- 0 AODV 48 [0 ffffffff 1a 800] ------- [12:255 -1:255 29 0] [0x2 2 1 [11 0] [26 4]] (REQUEST)
s 1.112288932 _35_ RTR  --- 0 AODV 48 [0 ffffffff 1a 800] ------- [35:255 -1:255 29 0] [0x2 2 1 [11 0] [26 4]] (REQUEST)
s 1.113333414 _10_ RTR  --- 0 AODV 48 [0 ffffffff 1a 800] ------- [10:255 -1:255 29 0] [0x2 2 1 [11 0] [26 4]] (REQUEST)
r 1.114250792 _29_ RTR  --- 0 AODV 48 [0 ffffffff 1c 800] ------- [28:255 -1:255 29 0] [0x2 2 1 [11 0] [26 4]] (REQUEST)
r 1.114250796 _27_ RTR  --- 0 AODV 48 [0 ffffffff 1c 800] ------- [28:255 -1:255 29 0] [0x2 2 1 [11 0] [26 4]] (REQUEST)
r 1.114250919 _20_ RTR  --- 0 AODV 48 [0 ffffffff 1c 800] ------- [28:255 -1:255 29 0] [0x2 2 1 [11 0] [26 4]] (REQUEST)
r 1.114250919 _36_ RTR  --- 0 AODV 48 [0 ffffffff 1c 800] ------- [28:255 -1:255 29 0] [0x2 2 1 [11 0] [26 4]] (REQUEST)
r 1.114250978 _21_ RTR  --- 0 AODV 48 [0 ffffffff 1c 800] ------- [28:255 -1:255 29 0] [0x2 2 1 [11 0] [26 4]] (REQUEST)
r 1.114250978 _37_ RTR  --- 0 AODV 48 [0 ffffffff 1c 800] ------- [28:255 -1:255 29 0] [0x2 2 1 [11 0] [26 4]] (REQUEST)
r 1.114250980 _19_ RTR  --- 0 AODV 48 [0 ffffffff 1c 800] ------- [28:255 -1:255 29 0] [0x2 2 1 [11 0] [26 4]] (REQUEST)
r 1.114250980 _35_ RTR  --- 0 AODV 48 [0 ffffffff 1c 800] ------- [28:255 -1:255 29 0] [0x2 2 1 [11 0] [26 4]] (REQUEST)
r 1.114251002 _26_ RTR  --- 0 AODV 48 [0 ffffffff 1c 800] ------- [28:255 -1:255 29 0] [0x2 2 1 [11 0] [26 4]] (REQUEST)
r 1.114251002 _30_ RTR  --- 0 AODV 48 [0 ffffffff 1c 800] ------- [28:255 -1:255 29 0] [0x2 2 1 [11 0] [26 4]] (REQUEST)
r 1.114251119 _22_ RTR  --- 0 AODV 48 [0 ffffffff 1c 800] ------- [28:255 -1:255 29 0] [0x2 2 1 [11 0] [26 4]] (REQUEST)
r 1.114251119 _18_ RTR  --- 0 AODV 48 [0 ffffffff 1c 800] ------- [28:255 -1:255 29 0] [0x2 2 1 [11 0] [26 4]] (REQUEST)
r 1.114251119 _34_ RTR  --- 0 AODV 48 [0 ffffffff 1c 800] ------- [28:255 -1:255 29 0] [0x2 2 1 [11 0] [26 4]] (REQUEST)
r 1.114251119 _38_ RTR  --- 0 AODV 48 [0 ffffffff 1c 800] ------- [28:255 -1:255 29 0] [0x2 2 1 [11 0] [26 4]] (REQUEST)
r 1.114251209 _31_ RTR  --- 0 AODV 48 [0 ffffffff 1c 800] ------- [28:255 -1:255 29 0] [0x2 2 1 [11 0] [26 4]] (REQUEST)
r 1.114251212 _25_ RTR  --- 0 AODV 48 [0 ffffffff 1c 800] ------- [28:255 -1:255 29 0] [0x2 2 1 [11 0] [26 4]] (REQUEST)
r 1.114251252 _12_ RTR  --- 0 AODV 48 [0 ffffffff 1c 800] ------- [28:255 -1:255 29 0] [0x2 2 1 [11 0] [26 4]] (REQUEST)
r 1.114251284 _13_ RTR  --- 0 AODV 48 [0 ffffffff 1c 800] ------- [28:255 -1:255 29 0] [0x2 2 1 [11 0] [26 4]] (REQUEST)
r 1.114251285 _11_ RTR  --- 0 AODV 48 [0 ffffffff 1c 800] ------- [28:255 -1:255 29 0] [0x2 2 1 [11 0] [26 4]] (REQUEST)
r 1.114251292 _23_ RTR  --- 0 AODV 48 [0 ffffffff 1c 800] ------- [28:255 -1:255 29 0] [0x2 2 1 [11 0] [26 4]] (REQUEST)
r 1.114251292 _39_ RTR  --- 0 AODV 48 [0 ffffffff 1c 800] ------- [28:255 -1:255 29 0] [0x2 2 1 [11 0] [26 4]] (REQUEST)
r 1.114251295 _17_ RTR  --- 0 AODV 48 [0 ffffffff 1c 800] ------- [28:255 -1:255 29 0] [0x2 2 1 [11 0] [26 4]] (REQUEST)
r 1.114251295 _33_ RTR  --- 0 AODV 48 [0 ffffffff 1c 800] ------- [28:255 -1:255 29 0] [0x2 2 1 [11 0] [26 4]] (REQUEST)
r 1.114251372 _14_ RTR  --- 0 AODV 48 [0 ffffffff 1c 800] ------- [28:255 -1:255 29 0] [0x2 2 1 [11 0] [26 4]] (REQUEST)
r 1.114251372 _10_ RTR  --- 0 AODV 48 [0 ffffffff 1c 800] ------- [28:255 -1:255 29 0] [0x2 2 1 [11 0] [26 4]] (REQUEST)
r 1.114251419 _24_ RTR  --- 0 AODV 48 [0 ffffffff 1c 800] ------- [28:255 -1:255 29 0] [0x2 2 1 [11 0] [26 4]] (REQUEST)
s 1.114267943 _37_ RTR  --- 0 AODV 48 [0 ffffffff 1a 800] ------- [37:255 -1:255 29 0] [0x2 2 1 [11 0] [26 4]] (REQUEST)
s 1.114352351 _8_ RTR  --- 0 AODV 48 [0 ffffffff 1a 800] ------- [8:255 -1:255 29 0] [0x2 2 1 [11 0] [26 4]] (REQUEST)
s 1.114781081 _27_ RTR  --- 0 AODV 48 [0 ffffffff 1a 800] ------- [27:255 -1:255 29 0] [0x2 2 1 [11 0] [26 4]] (REQUEST)
s 1.115718679 _20_ RTR  --- 0 AODV 48 [0 ffffffff 1a 800] ------- [20:255 -1:255 29 0] [0x2 2 1 [11 0] [26 4]] (REQUEST)
s 1.115869852 _23_ RTR  --- 0 AODV 48 [0 ffffffff 1c 800] ------- [23:255 -1:255 28 0] [0x2 3 1 [11 0] [26 4]] (REQUEST)
s 1.116162366 _18_ RTR  --- 0 AODV 48 [0 ffffffff 1a 800] ------- [18:255 -1:255 29 0] [0x2 2 1 [11 0] [26 4]] (REQUEST)
s 1.116304635 _21_ RTR  --- 0 AODV 48 [0 ffffffff 1a 800] ------- [21:255 -1:255 29 0] [0x2 2 1 [11 0] [26 4]] (REQUEST)
s 1.116309944 _38_ RTR  --- 0 AODV 48 [0 ffffffff 1c 800] ------- [38:255 -1:255 28 0] [0x2 3 1 [11 0] [26 4]] (REQUEST)
r 1.116531142 _36_ RTR  --- 0 AODV 48 [0 ffffffff 23 800] ------- [35:255 -1:255 29 0] [0x2 2 1 [11 0] [26 4]] (REQUEST)
r 1.116531349 _37_ RTR  --- 0 AODV 48 [0 ffffffff 23 800] ------- [35:255 -1:255 29 0] [0x2 2 1 [11 0] [26 4]] (REQUEST)
r 1.116582582 _32_ RTR  --- 0 AODV 48 [0 ffffffff 21 800] ------- [33:255 -1:255 29 0] [0x2 2 1 [11 0] [26 4]] (REQUEST)
r 1.116593895 _13_ RTR  --- 0 AODV 48 [0 ffffffff c 800] ------- [12:255 -1:255 29 0] [0x2 2 1 [11 0] [26 4]] (REQUEST)
r 1.116593898 _11_ RTR  --- 0 AODV 48 [0 ffffffff c 800] ------- [12:255 -1:255 29 0] [0x2 2 1 [11 0] [26 4]] (REQUEST)
r 1.116594022 _4_ RTR  --- 0 AODV 48 [0 ffffffff c 800] ------- [12:255 -1:255 29 0] [0x2 2 1 [11 0] [26 4]] (REQUEST)
r 1.116594022 _20_ RTR  --- 0 AODV 48 [0 ffffffff c 800] ------- [12:255 -1:255 29 0] [0x2 2 1 [11 0] [26 4]] (REQUEST)
r 1.116594081 _5_ RTR  --- 0 AODV 48 [0 ffffffff c 800] ------- [12:255 -1:255 29 0] [0x2 2 1 [11 0] [26 4]] (REQUEST)
r 1.116594081 _21_ RTR  --- 0 AODV 48 [0 ffffffff c 800] ------- [12:255 -1:255 29 0] [0x2 2 1 [11 0] [26 4]] (REQUEST)
r 1.116594082 _3_ RTR  --- 0 AODV 48 [0 ffffffff c 800] ------- [12:255 -1:255 29 0] [0x2 2 1 [11 0] [26 4]] (REQUEST)
r 1.116594105 _10_ RTR  --- 0 AODV 48 [0 ffffffff c 800] ------- [12:255 -1:255 29 0] [0x2 2 1 [11 0] [26 4]] (REQUEST)
r 1.116594105 _14_ RTR  --- 0 AODV 48 [0 ffffffff c 800] ------- [12:255 -1:255 29 0] [0x2 2 1 [11 0] [26 4]] (REQUEST)
r 1.116594222 _6_ RTR  --- 0 AODV 48 [0 ffffffff c 800] ------- [12:255 -1:255 29 0] [0x2 2 1 [11 0] [26 4]] (REQUEST)
r 1.116594222 _2_ RTR  --- 0 AODV 48 [0 ffffffff c 800] ------- [12:255 -1:255 29 0] [0x2 2 1 [11 0] [26 4]] (REQUEST)
r 1.116594312 _15_ RTR  --- 0 AODV 48 [0 ffffffff c 800] ------- [12:255 -1:255 29 0] [0x2 2 1 [11 0] [26 4]] (REQUEST)
r 1.116594395 _7_ RTR  --- 0 AODV 48 [0 ffffffff c 800] ------- [12:255 -1:255 29 0] [0x2 2 1 [11 0] [26 4]] (REQUEST)
s 1.116898776 _39_ RTR  --- 0 AODV 48 [0 ffffffff 1c 800] ------- [39:255 -1:255 28 0] [0x2 3 1 [11 0] [26 4]] (REQUEST)
s 1.116995749 _16_ RTR  --- 0 AODV 48 [0 ffffffff 1a 800] ------- [16:255 -1:255 29 0] [0x2 2 1 [11 0] [26 4]] (REQUEST)
s 1.117874212 _9_ RTR  --- 0 AODV 48 [0 ffffffff 1a 800] ------- [9:255 -1:255 29 0] [0x2 2 1 [11 0] [26 4]] (REQUEST)
s 1.117892727 _15_ RTR  --- 0 AODV 48 [0 ffffffff c 800] ------- [15:255 -1:255 28 0] [0x2 3 1 [11 0] [26 4]] (REQUEST)
s 1.118037745 _14_ RTR  --- 0 AODV 48 [0 ffffffff 1c 800] ------- [14:255 -1:255 28 0] [0x2 3 1 [11 0] [26 4]] (REQUEST)
s 1.118236080 _36_ RTR  --- 0 AODV 48 [0 ffffffff 1a 800] ------- [36:255 -1:255 29 0] [0x2 2 1 [11 0] [26 4]] (REQUEST)
s 1.118441295 _34_ RTR  --- 0 AODV 48 [0 ffffffff 1a 800] ------- [34:255 -1:255 29 0] [0x2 2 1 [11 0] [26 4]] (REQUEST)
s 1.118646998 _24_ RTR  --- 0 AODV 48 [0 ffffffff 1a 800] ------- [24:255 -1:255 29 0] [0x2 2 1 [11 0] [26 4]] (REQUEST)
s 1.118901352 _25_ RTR  --- 0 AODV 48 [0 ffffffff 1a 800] ------- [25:255 -1:255 29 0] [0x2 2 1 [11 0] [26 4]] (REQUEST)
r 1.119023288 _26_ RTR  --- 0 AODV 48 [0 ffffffff 1b 800] ------- [27:255 -1:255 29 0] [0x2 2 1 [11 0] [26 4]] (REQUEST)
r 1.119023291 _28_ RTR  --- 0 AODV 48 [0 ffffffff 1b 800] ------- [27:255 -1:255 29 0] [0x2 2 1 [11 0] [26 4]] (REQUEST)
r 1.119023414 _19_ RTR  --- 0 AODV 48 [0 ffffffff 1b 800] ------- [27:255 -1:255 29 0] [0x2 2 1 [11 0] [26 4]] (REQUEST)
r 1.119023414 _35_ RTR  --- 0 AODV 48 [0 ffffffff 1b 800] ------- [27:255 -1:255 29 0] [0x2 2 1 [11 0] [26 4]] (REQUEST)
r 1.119023473 _18_ RTR  --- 0 AODV 48 [0 ffffffff 1b 800] ------- [27:255 -1:255 29 0] [0x2 2 1 [11 0] [26 4]] (REQUEST)
r 1.119023473 _34_ RTR  --- 0 AODV 48 [0 ffffffff 1b 800] ------- [27:255 -1:255 29 0] [0x2 2 1 [11 0] [26 4]] (REQUEST)
r 1.119023475 _20_ RTR  --- 0 AODV 48 [0 ffffffff 1b 800] ------- [27:255 -1:255 29 0] [0x2 2 1 [11 0] [26 4]] (REQUEST)
r 1.119023475 _36_ RTR  --- 0 AODV 48 [0 ffffffff 1b 800] ------- [27:255 -1:255 29 0] [0x2 2 1 [11 0] [26 4]] (REQUEST)
r 1.119023498 _25_ RTR  --- 0 AODV 48 [0 ffffffff 1b 800] ------- [27:255 -1:255 29 0] [0x2 2 1 [11 0] [26 4]] (REQUEST)
r 1.119023498 _29_ RTR  --- 0 AODV 48 [0 ffffffff 1b 800] ------- [27:255 -1:255 29 0] [0x2 2 1 [11 0] [26 4]] (REQUEST)
r 1.119023615 _21_ RTR  --- 0 AODV 48 [0 ffffffff 1b 800] ------- [27:255 -1:255 29 0] [0x2 2 1 [11 0] [26 4]] (REQUEST)
r 1.119023615 _17_ RTR  --- 0 AODV 48 [0 ffffffff 1b 800] ------- [27:255 -1:255 29 0] [0x2 2 1 [11 0] [26 4]] (REQUEST)
r 1.119023615 _33_ RTR  --- 0 AODV 48 [0 ffffffff 1b 800] ------- [27:255 -1:255 29 0] [0x2 2 1 [11 0] [26 4]] (REQUEST)
r 1.119023615 _37_ RTR  --- 0 AODV 48 [0 ffffffff 1b 800] ------- [27:255 -1:255 29 0] [0x2 2 1 [11 0] [26 4]] (REQUEST)
r 1.119023704 _24_ RTR  --- 0 AODV 48 [0 ffffffff 1b 800] ------- [27:255 -1:255 29 0] [0x2 2 1 [11 0] [26 4]] (REQUEST)
r 1.119023708 _30_ RTR  --- 0 AODV 48 [0 ffffffff 1b 800] ------- [27:255 -1:255 29 0] [0x2 2 1 [11 0] [26 4]] (REQUEST)
r 1.119023748 _11_ RTR  --- 0 AODV 48 [0 ffffffff 1b 800] ------- [27:255 -1:255 29 0] [0x2 2 1 [11 0] [26 4]] (REQUEST)
r 1.119023779 _10_ RTR  --- 0 AODV 48 [0 ffffffff 1b 800] ------- [27:255 -1:255 29 0] [0x2 2 1 [11 0] [26 4]] (REQUEST)
r 1.119023780 _12_ RTR  --- 0 AODV 48 [0 ffffffff 1b 800] ------- [27:255 -1:255 29 0] [0x2 2 1 [11 0] [26 4]] (REQUEST)
r 1.119023788 _16_ RTR  --- 0 AODV 48 [0 ffffffff 1b 800] ------- [27:255 -1:255 29 0] [0x2 2 1 [11 0] [26 4]] (REQUEST)
r 1.119023788 _32_ RTR  --- 0 AODV 48 [0 ffffffff 1b 800] ------- [27:255 -1:255 29 0] [0x2 2 1 [11 0] [26 4]] (REQUEST)
r 1.119023791 _22_ RTR  --- 0 AODV 48 [0 ffffffff 1b 800] ------- [27:255 -1:255 29 0] [0x2 2 1 [11 0] [26 4]] (REQUEST)
r 1.119023791 _38_ RTR  --- 0 AODV 48 [0 ffffffff 1b 800] ------- [27:255 -1:255 29 0] [0x2 2 1 [11 0] [26 4]] (REQUEST)
r 1.119023867 _13_ RTR  --- 0 AODV 48 [0 ffffffff 1b 800] ------- [27:255 -1:255 29 0] [0x2 2 1 [11 0] [26 4]] (REQUEST)
r 1.119023867 _9_ RTR  --- 0 AODV 48 [0 ffffffff 1b 800] ------- [27:255 -1:255 29 0] [0x2 2 1 [11 0] [26 4]] (REQUEST)
r 1.119023914 _31_ RTR  --- 0 AODV 48 [0 ffffffff 1b 800] ------- [27:255 -1:255 29 0] [0x2 2 1 [11 0] [26 4]] (REQUEST)
s 1.119333155 _30_ RTR  --- 0 AODV 48 [0 ffffffff 1a 800] ------- [30:255 -1:255 29 0] [0x2 2 1 [11 0] [26 4]] (REQUEST)
s 1.120522429 _6_ RTR  --- 0 AODV 48 [0 ffffffff c 800] ------- [6:255 -1:255 28 0] [0x2 3 1 [11 0] [26 4]] (REQUEST)
s 1.120823848 _13_ RTR  --- 0 AODV 48 [0 ffffffff 1c 800] ------- [13:255 -1:255 28 0] [0x2 3 1 [11 0] [26 4]] (REQUEST)
s 1.120897694 _5_ RTR  --- 0 AODV 48 [0 ffffffff c 800] ------- [5:255 -1:255 28 0] [0x2 3 1 [11 0] [26 4]] (REQUEST)
s 1.121004984 _31_ RTR  --- 0 AODV 48 [0 ffffffff 1c 800] ------- [31:255 -1:255 28 0] [0x2 3 1 [11 0] [26 4]] (REQUEST)
r 1.121237956 _17_ RTR  --- 0 AODV 48 [0 ffffffff 10 800] ------- [16:255 -1:255 29 0] [0x2 2 1 [11 0] [26 4]] (REQUEST)
r 1.121238082 _8_ RTR  --- 0 AODV 48 [0 ffffffff 10 800] ------- [16:255 -1:255 29 0] [0x2 2 1 [11 0] [26 4]] (REQUEST)
r 1.121238082 _24_ RTR  --- 0 AODV 48 [0 ffffffff 10 800] ------- [16:255 -1:255 29 0] [0x2 2 1 [11 0] [26 4]] (REQUEST)
r 1.121238141 _9_ RTR  --- 0 AODV 48 [0 ffffffff 10 800] ------- [16:255 -1:255 29 0] [0x2 2 1 [11 0] [26 4]] (REQUEST)
r 1.121238141 _25_ RTR  --- 0 AODV 48 [0 ffffffff 10 800] ------- [16:255 -1:255 29 0] [0x2 2 1 [11 0] [26 4]] (REQUEST)
r 1.121238166 _18_ RTR  --- 0 AODV 48 [0 ffffffff 10 800] ------- [16:255 -1:255 29 0] [0x2 2 1 [11 0] [26 4]] (REQUEST)
r 1.121238282 _10_ RTR  --- 0 AODV 48 [0 ffffffff 10 800] ------- [16:255 -1:255 29 0] [0x2 2 1 [11 0] [26 4]] (REQUEST)
r 1.121238282 _26_ RTR  --- 0 AODV 48 [0 ffffffff 10 800] ------- [16:255 -1:255 29 0] [0x2 2 1 [11 0] [26 4]] (REQUEST)
r 1.121238372 _19_ RTR  --- 0 AODV 48 [0 ffffffff 10 800] ------- [16:255 -1:255 29 0] [0x2 2 1 [11 0] [26 4]] (REQUEST)
r 1.121238416 _0_ RTR  --- 0 AODV 48 [0 ffffffff 10 800] ------- [16:255 -1:255 29 0] [0x2 2 1 [11 0] [26 4]] (REQUEST)
r 1.121238416 _32_ RTR  --- 0 AODV 48 [0 ffffffff 10 800] ------- [16:255 -1:255 29 0] [0x2 2 1 [11 0] [26 4]] (REQUEST)
r 1.121238447 _1_ RTR  --- 0 AODV 48 [0 ffffffff 10 800] ------- [16:255 -1:255 29 0] [0x2 2 1 [11 0] [26 4]] (REQUEST)
r 1.121238447 _33_ RTR  --- 0 AODV 48 [0 ffffffff 10 800] ------- [16:255 -1:255 29 0] [0x2 2 1 [11 0] [26 4]] (REQUEST)
r 1.121238456 _11_ RTR  --- 0 AODV 48 [0 ffffffff 10 800] ------- [16:255 -1:255 29 0] [0x2 2 1 [11 0] [26 4]] (REQUEST)
r 1.121238456 _27_ RTR  --- 0 AODV 48 [0 ffffffff 10 800] ------- [16:255 -1:255 29 0] [0x2 2 1 [11 0] [26 4]] (REQUEST)
r 1.121238535 _2_ RTR  --- 0 AODV 48 [0 ffffffff 10 800] ------- [16:255 -1:255 29 0] [0x2 2 1 [11 0] [26 4]] (REQUEST)
r 1.121238535 _34_ RTR  --- 0 AODV 48 [0 ffffffff 10 800] ------- [16:255 -1:255 29 0] [0x2 2 1 [11 0] [26 4]] (REQUEST)
r 1.121238582 _20_ RTR  --- 0 AODV 48 [0 ffffffff 10 800] ------- [16:255 -1:255 29 0] [0x2 2 1 [11 0] [26 4]] (REQUEST)
s 1.121748051 _22_ RTR  --- 0 AODV 48 [0 ffffffff 1c 800] ------- [22:255 -1:255 28 0] [0x2 3 1 [11 0] [26 4]] (REQUEST)
s 1.122028945 _2_ RTR  --- 0 AODV 48 [0 ffffffff c 800] ------- [2:255 -1:255 28 0] [0x2 3 1 [11 0] [26 4]] (REQUEST)
s 1.122396718 _7_ RTR  --- 0 AODV 48 [0 ffffffff c 800] ------- [7:255 -1:255 28 0] [0x2 3 1 [11 0] [26 4]] (REQUEST)
s 1.122542508 _1_ RTR  --- 0 AODV 48 [0 ffffffff 10 800] ------- [1:255 -1:255 28 0] [0x2 3 1 [11 0] [26 4]] (REQUEST)
r 1.123451502 _35_ RTR  --- 0 AODV 48 [0 ffffffff 22 800] ------- [34:255 -1:255 29 0] [0x2 2 1 [11 0] [26 4]] (REQUEST)
r 1.123463559 _24_ RTR  --- 0 AODV 48 [0 ffffffff 19 800] ------- [25:255 -1:255 29 0] [0x2 2 1 [11 0] [26 4]] (REQUEST)
r 1.123463686 _17_ RTR  --- 0 AODV 48 [0 ffffffff 19 800] ------- [25:255 -1:255 29 0] [0x2 2 1 [11 0] [26 4]] (REQUEST)
r 1.123463744 _16_ RTR  --- 0 AODV 48 [0 ffffffff 19 800] ------- [25:255 -1:255 29 0] [0x2 2 1 [11 0] [26 4]] (REQUEST)
r 1.123508983 _38_ RTR  --- 0 AODV 48 [0 ffffffff 27 800] ------- [39:255 -1:255 28 0] [0x2 3 1 [11 0] [26 4]] (REQUEST)
r 1.123509110 _31_ RTR  --- 0 AODV 48 [0 ffffffff 27 800] ------- [39:255 -1:255 28 0] [0x2 3 1 [11 0] [26 4]] (REQUEST)
r 1.123509169 _30_ RTR  --- 0 AODV 48 [0 ffffffff 27 800] ------- [39:255 -1:255 28 0] [0x2 3 1 [11 0] [26 4]] (REQUEST)
s 1.123677542 _4_ RTR  --- 0 AODV 48 [0 ffffffff c 800] ------- [4:255 -1:255 28 0] [0x2 3 1 [11 0] [26 4]] (REQUEST)
s 1.124894536 _3_ RTR  --- 0 AODV 48 [0 ffffffff c 800] ------- [3:255 -1:255 28 0] [0x2 3 1 [11 0] [26 4]] (REQUEST)
r 1.125724635 _7_ RTR  --- 0 AODV 48 [0 ffffffff 6 800] ------- [6:255 -1:255 28 0] [0x2 3 1 [11 0] [26 4]] (REQUEST)
r 1.125724639 _5_ RTR  --- 0 AODV 48 [0 ffffffff 6 800] ------- [6:255 -1:255 28 0] [0x2 3 1 [11 0] [26 4]] (REQUEST)
r 1.125724762 _14_ RTR  --- 0 AODV 48 [0 ffffffff 6 800] ------- [6:255 -1:255 28 0] [0x2 3 1 [11 0] [26 4]] (REQUEST)
r 1.125724821 _15_ RTR  --- 0 AODV 48 [0 ffffffff 6 800] ------- [6:255 -1:255 28 0] [0x2 3 1 [11 0] [26 4]] (REQUEST)
r 1.125724823 _13_ RTR  --- 0 AODV 48 [0 ffffffff 6 800] ------- [6:255 -1:255 28 0] [0x2 3 1 [11 0] [26 4]] (REQUEST)
r 1.125724845 _4_ RTR  --- 0 AODV 48 [0 ffffffff 6 800] ------- [6:255 -1:255 28 0] [0x2 3 1 [11 0] [26 4]] (REQUEST)
r 1.125724962 _12_ RTR  --- 0 AODV 48 [0 ffffffff 6 800] ------- [6:255 -1:255 28 0] [0x2 3 1 [11 0] [26 4]] (REQUEST)
r 1.125725055 _3_ RTR  --- 0 AODV 48 [0 ffffffff 6 800] ------- [6:255 -1:255 28 0] [0x2 3 1 [11 0] [26 4]] (REQUEST)
r 1.125725095 _22_ RTR  --- 0 AODV 48 [0 ffffffff 6 800] ------- [6:255 -1:255 28 0] [0x2 3 1 [11 0] [26 4]] (REQUEST)
r 1.125725127 _23_ RTR  --- 0 AODV 48 [0 ffffffff 6 800] ------- [6:255 -1:255 28 0] [0x2 3 1 [11 0] [26 4]] (REQUEST)
r 1.125725128 _21_ RTR  --- 0 AODV 48 [0 ffffffff 6 800] ------- [6:255 -1:255 28 0] [0x2 3 1 [11 0] [26 4]] (REQUEST)
r 1.125725138 _11_ RTR  --- 0 AODV 48 [0 ffffffff 6 800] ------- [6:255 -1:255 28 0] [0x2 3 1 [11 0] [26 4]] (REQUEST)
r 1.125725215 _20_ RTR  --- 0 AODV 48 [0 ffffffff 6 800] ------- [6:255 -1:255 28 0] [0x2 3 1 [11 0] [26 4]] (REQUEST)
r 1.125725262 _2_ RTR  --- 0 AODV 48 [0 ffffffff 6 800] ------- [6:255 -1:255 28 0] [0x2 3 1 [11 0] [26 4]] (REQUEST)
s 1.126405439 _2_ AGT  --- 1 tcp 40 [0 0 0 0] ------- [2:0 3:0 32 0] [0 0] 0 0
r 1.126405439 _2_ RTR  --- 1 tcp 40 [0 0 0 0] ------- [2:0 3:0 32 0] [0 0] 0 0
s 1.126405439 _2_ RTR  --- 0 AODV 48 [0 0 0 0] ------- [2:255 -1:255 30 0] [0x2 1 1 [3 0] [2 4]] (REQUEST)
s 1.127554771 _0_ RTR  --- 0 AODV 48 [0 ffffffff 10 800] ------- [0:255 -1:255 28 0] [0x2 3 1 [11 0] [26 4]] (REQUEST)
s 1.127838335 _2_ AGT  --- 2 tcp 40 [0 0 0 0] ------- [2:1 13:0 32 0] [0 0] 0 0
r 1.127838335 _2_ RTR  --- 2 tcp 40 [0 0 0 0] ------- [2:1 13:0 32 0] [0 0] 0 0
s 1.127838335 _2_ RTR  --- 0 AODV 48 [0 0 0 0] ------- [2:255 -1:255 30 0] [0x2 1 2 [13 0] [2 6]] (REQUEST)
r 1.128132419 _8_ RTR  --- 0 AODV 48 [0 ffffffff 9 800] ------- [9:255 -1:255 29 0] [0x2 2 1 [11 0] [26 4]] (REQUEST)
r 1.128132546 _1_ RTR  --- 0 AODV 48 [0 ffffffff 9 800] ------- [9:255 -1:255 29 0] [0x2 2 1 [11 0] [26 4]] (REQUEST)
r 1.128132604 _0_ RTR  --- 0 AODV 48 [0 ffffffff 9 800] ------- [9:255 -1:255 29 0] [0x2 2 1 [11 0] [26 4]] (REQUEST)
r 1.128147900 _4_ RTR  --- 0 AODV 48 [0 ffffffff 5 800] ------- [5:255 -1:255 28 0] [0x2 3 1 [11 0] [26 4]] (REQUEST)
r 1.128147904 _6_ RTR  --- 0 AODV 48 [0 ffffffff 5 800] ------- [5:255 -1:255 28 0] [0x2 3 1 [11 0] [26 4]] (REQUEST)
r 1.128148110 _7_ RTR  --- 0 AODV 48 [0 ffffffff 5 800] ------- [5:255 -1:255 28 0] [0x2 3 1 [11 0] [26 4]] (REQUEST)
r 1.128304873 _20_ RTR  --- 0 AODV 48 [0 ffffffff 13 800] ------- [19:255 -1:255 29 0] [0x2 2 1 [11 0] [26 4]] (REQUEST)
r 1.128304996 _27_ RTR  --- 0 AODV 48 [0 ffffffff 13 800] ------- [19:255 -1:255 29 0] [0x2 2 1 [11 0] [26 4]] (REQUEST)
r 1.128305057 _28_ RTR  --- 0 AODV 48 [0 ffffffff 13 800] ------- [19:255 -1:255 29 0] [0x2 2 1 [11 0] [26 4]] (REQUEST)
r 1.130884624 _16_ RTR  --- 0 AODV 48 [0 ffffffff 11 800] ------- [17:255 -1:255 29 0] [0x2 2 1 [11 0] [26 4]] (REQUEST)
r 1.130884628 _18_ RTR  --- 0 AODV 48 [0 ffffffff 11 800] ------- [17:255 -1:255 29 0] [0x2 2 1 [11 0] [26 4]] (REQUEST)
r 1.130884751 _9_ RTR  --- 0 AODV 48 [0 ffffffff 11 800] ------- [17:255 -1:255 29 0] [0x2 2 1 [11 0] [26 4]] (REQUEST)
r 1.130884751 _25_ RTR  --- 0 AODV 48 [0 ffffffff 11 800] ------- [17:255 -1:255 29 0] [0x2 2 1 [11 0] [26 4]] (REQUEST)
r 1.130884810 _8_ RTR  --- 0 AODV 48 [0 ffffffff 11 800] ------- [17:255 -1:255 29 0] [0x2 2 1 [11 0] [26 4]] (REQUEST)
r 1.130884810 _24_ RTR  --- 0 AODV 48 [0 ffffffff 11 800] ------- [17:255 -1:255 29 0] [0x2 2 1 [11 0] [26 4]] (REQUEST)
r 1.130884812 _10_ RTR  --- 0 AODV 48 [0 ffffffff 11 800] ------- [17:255 -1:255 29 0] [0x2 2 1 [11 0] [26 4]] (REQUEST)
r 1.130884812 _26_ RTR  --- 0 AODV 48 [0 ffffffff 11 800] ------- [17:255 -1:255 29 0] [0x2 2 1 [11 0] [26 4]] (REQUEST)
r 1.130884834 _19_ RTR  --- 0 AODV 48 [0 ffffffff 11 800] ------- [17:255 -1:255 29 0] [0x2 2 1 [11 0] [26 4]] (REQUEST)
r 1.130884951 _11_ RTR  --- 0 AODV 48 [0 ffffffff 11 800] ------- [17:255 -1:255 29 0] [0x2 2 1 [11 0] [26 4]] (REQUEST)
r 1.130884951 _27_ RTR  --- 0 AODV 48 [0 ffffffff 11 800] ------- [17:255 -1:255 29 0] [0x2 2 1 [11 0] [26 4]] (REQUEST)
r 1.130885044 _20_ RTR  --- 0 AODV 48 [0 ffffffff 11 800] ------- [17:255 -1:255 29 0] [0x2 2 1 [11 0] [26 4]] (REQUEST)
r 1.130885084 _1_ RTR  --- 0 AODV 48 [0 ffffffff 11 800] ------- [17:255 -1:255 29 0] [0x2 2 1 [11 0] [26 4]] (REQUEST)
r 1.130885084 _33_ RTR  --- 0 AODV 48 [0 ffffffff 11 800] ------- [17:255 -1:255 29 0] [0x2 2 1 [11 0] [26 4]] (REQUEST)
r 1.130885116 _0_ RTR  --- 0 AODV 48 [0 ffffffff 11 800] ------- [17:255 -1:255 29 0] [0x2 2 1 [11 0] [26 4]] (REQUEST)
r 1.130885116 _32_ RTR  --- 0 AODV 48 [0 ffffffff 11 800] ------- [17:255 -1:255 29 0] [0x2 2 1 [11 0] [26 4]] (REQUEST)
r 1.130885117 _2_ RTR  --- 0 AODV 48 [0 ffffffff 11 800] ------- [17:255 -1:255 29 0] [0x2 2 1 [11 0] [26 4]] (REQUEST)
r 1.130885117 _34_ RTR  --- 0 AODV 48 [0 ffffffff 11 800] ------- [17:255 -1:255 29 0] [0x2 2 1 [11 0] [26 4]] (REQUEST)
r 1.130885128 _12_ RTR  --- 0 AODV 48 [0 ffffffff 11 800] ------- [17:255 -1:255 29 0] [0x2 2 1 [11 0] [26 4]] (REQUEST)
r 1.130885128 _28_ RTR  --- 0 AODV 48 [0 ffffffff 11 800] ------- [17:255 -1:255 29 0] [0x2 2 1 [11 0] [26 4]] (REQUEST)
r 1.130885204 _3_ RTR  --- 0 AODV 48 [0 ffffffff 11 800] ------- [17:255 -1:255 29 0] [0x2 2 1 [11 0] [26 4]] (REQUEST)
r 1.130885204 _35_ RTR  --- 0 AODV 48 [0 ffffffff 11 800] ------- [17:255 -1:255 29 0] [0x2 2 1 [11 0] [26 4]] (REQUEST)
r 1.130885251 _21_ RTR  --- 0 AODV 48 [0 ffffffff 11 800] ------- [17:255 -1:255 29 0] [0x2 2 1 [11 0] [26 4]] (REQUEST)
r 1.133130055 _12_ RTR  --- 0 AODV 48 [0 ffffffff d 800] ------- [13:255 -1:255 28 0] [0x2 3 1 [11 0] [26 4]] (REQUEST)
r 1.136000714 _0_ RTR  --- 0 AODV 48 [0 ffffffff 1 800] ------- [1:255 -1:255 28 0] [0x2 3 1 [11 0] [26 4]] (REQUEST)
r 1.136000718 _2_ RTR  --- 0 AODV 48 [0 ffffffff 1 800] ------- [1:255 -1:255 28 0] [0x2 3 1 [11 0] [26 4]] (REQUEST)
r 1.136000841 _9_ RTR  --- 0 AODV 48 [0 ffffffff 1 800] ------- [1:255 -1:255 28 0] [0x2 3 1 [11 0] [26 4]] (REQUEST)
r 1.136000900 _8_ RTR  --- 0 AODV 48 [0 ffffffff 1 800] ------- [1:255 -1:255 28 0] [0x2 3 1 [11 0] [26 4]] (REQUEST)
r 1.136000902 _10_ RTR  --- 0 AODV 48 [0 ffffffff 1 800] ------- [1:255 -1:255 28 0] [0x2 3 1 [11 0] [26 4]] (REQUEST)
r 1.136000924 _3_ RTR  --- 0 AODV 48 [0 ffffffff 1 800] ------- [1:255 -1:255 28 0] [0x2 3 1 [11 0] [26 4]] (REQUEST)
r 1.136001206 _16_ RTR  --- 0 AODV 48 [0 ffffffff 1 800] ------- [1:255 -1:255 28 0] [0x2 3 1 [11 0] [26 4]] (REQUEST)
r 1.136174924 _6_ RTR  --- 0 AODV 48 [0 ffffffff 7 800] ------- [7:255 -1:255 28 0] [0x2 3 1 [11 0] [26 4]] (REQUEST)
r 1.136176058 _22_ RTR  --- 0 AODV 48 [0 ffffffff 17 800] ------- [23:255 -1:255 28 0] [0x2 3 1 [11 0] [26 4]] (REQUEST)
r 1.136176185 _31_ RTR  --- 0 AODV 48 [0 ffffffff 17 800] ------- [23:255 -1:255 28 0] [0x2 3 1 [11 0] [26 4]] (REQUEST)
r 1.136176244 _30_ RTR  --- 0 AODV 48 [0 ffffffff 17 800] ------- [23:255 -1:255 28 0] [0x2 3 1 [11 0] [26 4]] (REQUEST)
r 1.136176385 _29_ RTR  --- 0 AODV 48 [0 ffffffff 17 800] ------- [23:255 -1:255 28 0] [0x2 3 1 [11 0] [26 4]] (REQUEST)
r 1.136176518 _39_ RTR  --- 0 AODV 48 [0 ffffffff 17 800] ------- [23:255 -1:255 28 0] [0x2 3 1 [11 0] [26 4]] (REQUEST)
r 1.138634943 _28_ RTR  --- 0 AODV 48 [0 ffffffff 1d 800] ------- [29:255 -1:255 29 0] [0x2 2 1 [11 0] [26 4]] (REQUEST)
r 1.138634946 _30_ RTR  --- 0 AODV 48 [0 ffffffff 1d 800] ------- [29:255 -1:255 29 0] [0x2 2 1 [11 0] [26 4]] (REQUEST)
r 1.138635069 _37_ RTR  --- 0 AODV 48 [0 ffffffff 1d 800] ------- [29:255 -1:255 29 0] [0x2 2 1 [11 0] [26 4]] (REQUEST)
r 1.138635128 _36_ RTR  --- 0 AODV 48 [0 ffffffff 1d 800] ------- [29:255 -1:255 29 0] [0x2 2 1 [11 0] [26 4]] (REQUEST)
r 1.138635130 _38_ RTR  --- 0 AODV 48 [0 ffffffff 1d 800] ------- [29:255 -1:255 29 0] [0x2 2 1 [11 0] [26 4]] (REQUEST)
r 1.138635153 _27_ RTR  --- 0 AODV 48 [0 ffffffff 1d 800] ------- [29:255 -1:255 29 0] [0x2 2 1 [11 0] [26 4]] (REQUEST)
r 1.138635270 _35_ RTR  --- 0 AODV 48 [0 ffffffff 1d 800] ------- [29:255 -1:255 29 0] [0x2 2 1 [11 0] [26 4]] (REQUEST)
r 1.138635270 _39_ RTR  --- 0 AODV 48 [0 ffffffff 1d 800] ------- [29:255 -1:255 29 0] [0x2 2 1 [11 0] [26 4]] (REQUEST)
r 1.138635443 _34_ RTR  --- 0 AODV 48 [0 ffffffff 1d 800] ------- [29:255 -1:255 29 0] [0x2 2 1 [11 0] [26 4]] (REQUEST)
r 1.138791952 _15_ RTR  --- 0 AODV 48 [0 ffffffff e 800] ------- [14:255 -1:255 28 0] [0x2 3 1 [11 0] [26 4]] (REQUEST)
r 1.138791955 _13_ RTR  --- 0 AODV 48 [0 ffffffff e 800] ------- [14:255 -1:255 28 0] [0x2 3 1 [11 0] [26 4]] (REQUEST)
r 1.138792078 _6_ RTR  --- 0 AODV 48 [0 ffffffff e 800] ------- [14:255 -1:255 28 0] [0x2 3 1 [11 0] [26 4]] (REQUEST)
r 1.138792137 _7_ RTR  --- 0 AODV 48 [0 ffffffff e 800] ------- [14:255 -1:255 28 0] [0x2 3 1 [11 0] [26 4]] (REQUEST)
r 1.138792139 _5_ RTR  --- 0 AODV 48 [0 ffffffff e 800] ------- [14:255 -1:255 28 0] [0x2 3 1 [11 0] [26 4]] (REQUEST)
r 1.138792278 _4_ RTR  --- 0 AODV 48 [0 ffffffff e 800] ------- [14:255 -1:255 28 0] [0x2 3 1 [11 0] [26 4]] (REQUEST)
r 1.141961205 _25_ RTR  --- 0 AODV 48 [0 ffffffff 18 800] ------- [24:255 -1:255 29 0] [0x2 2 1 [11 0] [26 4]] (REQUEST)
r 1.141961332 _16_ RTR  --- 0 AODV 48 [0 ffffffff 18 800] ------- [24:255 -1:255 29 0] [0x2 2 1 [11 0] [26 4]] (REQUEST)
r 1.141961332 _32_ RTR  --- 0 AODV 48 [0 ffffffff 18 800] ------- [24:255 -1:255 29 0] [0x2 2 1 [11 0] [26 4]] (REQUEST)
r 1.141961391 _17_ RTR  --- 0 AODV 48 [0 ffffffff 18 800] ------- [24:255 -1:255 29 0] [0x2 2 1 [11 0] [26 4]] (REQUEST)
r 1.141961391 _33_ RTR  --- 0 AODV 48 [0 ffffffff 18 800] ------- [24:255 -1:255 29 0] [0x2 2 1 [11 0] [26 4]] (REQUEST)
r 1.141961415 _26_ RTR  --- 0 AODV 48 [0 ffffffff 18 800] ------- [24:255 -1:255 29 0] [0x2 2 1 [11 0] [26 4]] (REQUEST)
r 1.141961532 _18_ RTR  --- 0 AODV 48 [0 ffffffff 18 800] ------- [24:255 -1:255 29 0] [0x2 2 1 [11 0] [26 4]] (REQUEST)
r 1.141961532 _34_ RTR  --- 0 AODV 48 [0 ffffffff 18 800] ------- [24:255 -1:255 29 0] [0x2 2 1 [11 0] [26 4]] (REQUEST)
r 1.141961622 _27_ RTR  --- 0 AODV 48 [0 ffffffff 18 800] ------- [24:255 -1:255 29 0] [0x2 2 1 [11 0] [26 4]] (REQUEST)
r 1.141961665 _8_ RTR  --- 0 AODV 48 [0 ffffffff 18 800] ------- [24:255 -1:255 29 0] [0x2 2 1 [11 0] [26 4]] (REQUEST)
r 1.141961696 _9_ RTR  --- 0 AODV 48 [0 ffffffff 18 800] ------- [24:255 -1:255 29 0] [0x2 2 1 [11 0] [26 4]] (REQUEST)
r 1.141961705 _19_ RTR  --- 0 AODV 48 [0 ffffffff 18 800] ------- [24:255 -1:255 29 0] [0x2 2 1 [11 0] [26 4]] (REQUEST)